<?xml version="1.0" encoding="ISO-8859-1"?>
<modeling>
 <generator>
  <i name="program" type="string">vasp </i>
  <i name="version" type="string">5.4.1  </i>
  <i name="subversion" type="string">05Feb16 (build Mar 26 2016 11:58:25) complex                          parallel </i>
  <i name="platform" type="string">IFC91_ompi </i>
  <i name="date" type="string">2017 03 12 </i>
  <i name="time" type="string">12:16:56 </i>
 </generator>
 <incar>
  <i type="string" name="PREC">accurate</i>
  <i type="int" name="IALGO">    38</i>
  <i type="logical" name="ADDGRID"> T  </i>
  <i type="int" name="NELMIN">     5</i>
  <i type="int" name="IBRION">    -1</i>
  <i name="EDIFF">      0.00000001</i>
  <i name="ENCUT">    300.00000000</i>
  <i type="logical" name="LREAL"> F  </i>
  <i type="int" name="ISMEAR">     0</i>
  <i name="SIGMA">      0.05000000</i>
  <i type="logical" name="LWAVE"> F  </i>
  <i type="logical" name="LCHARG"> F  </i>
  <v type="int" name="KPOINT_BSE">    -1     0     0     0</v>
 </incar>
 <kpoints>
  <generation param="Monkhorst-Pack">
   <v type="int" name="divisions">       2        2        2 </v>
   <v name="usershift">      0.00000000       0.00000000       0.00000000 </v>
   <v name="genvec1">      0.50000000       0.00000000       0.00000000 </v>
   <v name="genvec2">      0.00000000       0.50000000       0.00000000 </v>
   <v name="genvec3">      0.00000000       0.00000000       0.50000000 </v>
   <v name="shift">      0.50000000       0.50000000       0.50000000 </v>
  </generation>
  <varray name="kpointlist" >
   <v>       0.25000000       0.25000000       0.25000000 </v>
   <v>      -0.25000000       0.25000000       0.25000000 </v>
   <v>       0.25000000      -0.25000000       0.25000000 </v>
   <v>      -0.25000000      -0.25000000       0.25000000 </v>
  </varray>
  <varray name="weights" >
   <v>       0.25000000 </v>
   <v>       0.25000000 </v>
   <v>       0.25000000 </v>
   <v>       0.25000000 </v>
  </varray>
 </kpoints>
 <parameters>
  <separator name="general" >
   <i type="string" name="SYSTEM">unknown system</i>
   <i type="logical" name="LCOMPAT"> F  </i>
  </separator>
  <separator name="electronic" >
   <i type="string" name="PREC">accura</i>
   <i name="ENMAX">    300.00000000</i>
   <i name="ENAUG">    322.06900000</i>
   <i name="EDIFF">      0.00000001</i>
   <i type="int" name="IALGO">    38</i>
   <i type="int" name="IWAVPR">    10</i>
   <i type="int" name="NBANDS">   164</i>
   <i name="NELECT">    256.00000000</i>
   <i type="int" name="TURBO">     0</i>
   <i type="int" name="IRESTART">     0</i>
   <i type="int" name="NREBOOT">     0</i>
   <i type="int" name="NMIN">     0</i>
   <i name="EREF">      0.00000000</i>
   <separator name="electronic smearing" >
    <i type="int" name="ISMEAR">     0</i>
    <i name="SIGMA">      0.05000000</i>
    <i name="KSPACING">      0.50000000</i>
    <i type="logical" name="KGAMMA"> T  </i>
   </separator>
   <separator name="electronic projectors" >
    <i type="logical" name="LREAL"> F  </i>
    <v name="ROPT">      0.00000000</v>
    <i type="int" name="LMAXPAW">  -100</i>
    <i type="int" name="LMAXMIX">     2</i>
    <i type="logical" name="NLSPLINE"> F  </i>
   </separator>
   <separator name="electronic startup" >
    <i type="int" name="ISTART">     0</i>
    <i type="int" name="ICHARG">     2</i>
    <i type="int" name="INIWAV">     1</i>
   </separator>
   <separator name="electronic spin" >
    <i type="int" name="ISPIN">     1</i>
    <i type="logical" name="LNONCOLLINEAR"> F  </i>
    <v name="MAGMOM">      1.00000000      1.00000000      1.00000000      1.00000000      1.00000000      1.00000000      1.00000000      1.00000000      1.00000000      1.00000000      1.00000000      1.00000000      1.00000000      1.00000000      1.00000000      1.00000000      1.00000000      1.00000000      1.00000000      1.00000000
      1.00000000      1.00000000      1.00000000      1.00000000      1.00000000      1.00000000      1.00000000      1.00000000      1.00000000      1.00000000      1.00000000      1.00000000      1.00000000      1.00000000      1.00000000      1.00000000      1.00000000      1.00000000      1.00000000      1.00000000
      1.00000000      1.00000000      1.00000000      1.00000000      1.00000000      1.00000000      1.00000000      1.00000000      1.00000000      1.00000000      1.00000000      1.00000000      1.00000000      1.00000000      1.00000000      1.00000000      1.00000000      1.00000000      1.00000000      1.00000000
      1.00000000      1.00000000      1.00000000      1.00000000</v>
    <i name="NUPDOWN">     -1.00000000</i>
    <i type="logical" name="LSORBIT"> F  </i>
    <v name="SAXIS">      0.00000000      0.00000000      1.00000000</v>
    <i type="logical" name="LSPIRAL"> F  </i>
    <v name="QSPIRAL">      0.00000000      0.00000000      0.00000000</v>
    <i type="logical" name="LZEROZ"> F  </i>
   </separator>
   <separator name="electronic exchange-correlation" >
    <i type="logical" name="LASPH"> F  </i>
    <i type="logical" name="LMETAGGA"> F  </i>
   </separator>
   <separator name="electronic convergence" >
    <i type="int" name="NELM">    60</i>
    <i type="int" name="NELMDL">    -5</i>
    <i type="int" name="NELMIN">     5</i>
    <i name="ENINI">    300.00000000</i>
    <separator name="electronic convergence detail" >
     <i type="logical" name="LDIAG"> T  </i>
     <i type="logical" name="LSUBROT"> F  </i>
     <i name="WEIMIN">      0.00000000</i>
     <i name="EBREAK">      0.00000000</i>
     <i name="DEPER">      0.30000000</i>
     <i type="int" name="NRMM">     4</i>
     <i name="TIME">      0.40000000</i>
    </separator>
   </separator>
   <separator name="electronic mixer" >
    <i name="AMIX">      0.40000000</i>
    <i name="BMIX">      1.00000000</i>
    <i name="AMIN">      0.10000000</i>
    <i name="AMIX_MAG">      1.60000000</i>
    <i name="BMIX_MAG">      1.00000000</i>
    <separator name="electronic mixer details" >
     <i type="int" name="IMIX">     4</i>
     <i type="logical" name="MIXFIRST"> F  </i>
     <i type="int" name="MAXMIX">   -45</i>
     <i name="WC">    100.00000000</i>
     <i type="int" name="INIMIX">     1</i>
     <i type="int" name="MIXPRE">     1</i>
     <i type="int" name="MREMOVE">     5</i>
    </separator>
   </separator>
   <separator name="electronic dipolcorrection" >
    <i type="logical" name="LDIPOL"> F  </i>
    <i type="logical" name="LMONO"> F  </i>
    <i type="int" name="IDIPOL">     0</i>
    <i name="EPSILON">      1.00000000</i>
    <v name="DIPOL">   -100.00000000   -100.00000000   -100.00000000</v>
    <i name="EFIELD">      0.00000000</i>
   </separator>
  </separator>
  <separator name="grids" >
   <i type="int" name="NGX">    64</i>
   <i type="int" name="NGY">    64</i>
   <i type="int" name="NGZ">    64</i>
   <i type="int" name="NGXF">   128</i>
   <i type="int" name="NGYF">   128</i>
   <i type="int" name="NGZF">   128</i>
   <i type="logical" name="ADDGRID"> T  </i>
  </separator>
  <separator name="ionic" >
   <i type="int" name="NSW">     0</i>
   <i type="int" name="IBRION">    -1</i>
   <i type="int" name="ISIF">     2</i>
   <i name="PSTRESS">      0.00000000</i>
   <i name="EDIFFG">      0.00000010</i>
   <i type="int" name="NFREE">     0</i>
   <i name="POTIM">      0.50000000</i>
   <i name="SMASS">     -3.00000000</i>
   <i name="SCALEE">      1.00000000</i>
  </separator>
  <separator name="ionic md" >
   <i name="TEBEG">      0.00010000</i>
   <i name="TEEND">      0.00010000</i>
   <i type="int" name="NBLOCK">     1</i>
   <i type="int" name="KBLOCK">     1</i>
   <i type="int" name="NPACO">   256</i>
   <i name="APACO">     16.00000000</i>
  </separator>
  <separator name="symmetry" >
   <i type="int" name="ISYM">     2</i>
   <i name="SYMPREC">      0.00001000</i>
  </separator>
  <separator name="dos" >
   <i type="logical" name="LORBIT"> F  </i>
   <v name="RWIGS">     -1.00000000</v>
   <i type="int" name="NEDOS">   301</i>
   <i name="EMIN">     10.00000000</i>
   <i name="EMAX">    -10.00000000</i>
   <i name="EFERMI">      0.00000000</i>
  </separator>
  <separator name="writing" >
   <i type="int" name="NWRITE">     2</i>
   <i type="logical" name="LWAVE"> F  </i>
   <i type="logical" name="LCHARG"> F  </i>
   <i type="logical" name="LPARD"> F  </i>
   <i type="logical" name="LVTOT"> F  </i>
   <i type="logical" name="LVHAR"> F  </i>
   <i type="logical" name="LELF"> F  </i>
   <i type="logical" name="LOPTICS"> F  </i>
   <v name="STM">      0.00000000      0.00000000      0.00000000      0.00000000      0.00000000      0.00000000      0.00000000</v>
  </separator>
  <separator name="performance" >
   <i type="int" name="NPAR">     4</i>
   <i type="int" name="NSIM">     4</i>
   <i type="int" name="NBLK">    -1</i>
   <i type="logical" name="LPLANE"> T  </i>
   <i type="logical" name="LSCALAPACK"> T  </i>
   <i type="logical" name="LSCAAWARE"> F  </i>
   <i type="logical" name="LSCALU"> F  </i>
   <i type="logical" name="LASYNC"> F  </i>
   <i type="logical" name="LORBITALREAL"> F  </i>
  </separator>
  <separator name="miscellaneous" >
   <i type="int" name="IDIOT">     3</i>
   <i type="logical" name="LMUSIC"> F  </i>
   <v name="POMASS">     28.08500000</v>
   <v name="DARWINR">      0.00000000</v>
   <v name="DARWINV">      1.00000000</v>
   <i type="logical" name="LCORR"> T  </i>
  </separator>
  <i type="logical" name="GGA_COMPAT"> T  </i>
  <i type="logical" name="LBERRY"> F  </i>
  <i type="int" name="ICORELEVEL">     0</i>
  <i type="logical" name="LDAU"> F  </i>
  <i type="int" name="I_CONSTRAINED_M">     0</i>
  <separator name="electronic exchange-correlation" >
   <i type="string" name="GGA">--</i>
   <i type="int" name="VOSKOWN">     0</i>
   <i type="logical" name="LHFCALC"> F  </i>
   <i type="string" name="PRECFOCK"></i>
   <i type="logical" name="LSYMGRAD"> F  </i>
   <i type="logical" name="LHFONE"> F  </i>
   <i type="logical" name="LRHFCALC"> F  </i>
   <i type="logical" name="LTHOMAS"> F  </i>
   <i type="logical" name="LMODELHF"> F  </i>
   <i name="ENCUT4O">     -1.00000000</i>
   <i type="int" name="EXXOEP">     0</i>
   <i type="int" name="FOURORBIT">     0</i>
   <i name="AEXX">      0.00000000</i>
   <i name="HFALPHA">      0.00000000</i>
   <i name="MCALPHA">      0.00000000</i>
   <i name="ALDAX">      1.00000000</i>
   <i name="AGGAX">      1.00000000</i>
   <i name="ALDAC">      1.00000000</i>
   <i name="AGGAC">      1.00000000</i>
   <i type="int" name="NKREDX">     1</i>
   <i type="int" name="NKREDY">     1</i>
   <i type="int" name="NKREDZ">     1</i>
   <i type="logical" name="SHIFTRED"> F  </i>
   <i type="logical" name="ODDONLY"> F  </i>
   <i type="logical" name="EVENONLY"> F  </i>
   <i type="int" name="LMAXFOCK">     0</i>
   <i type="int" name="NMAXFOCKAE">     0</i>
   <i type="logical" name="LFOCKAEDFT"> F  </i>
   <i name="HFSCREEN">      0.00000000</i>
   <i name="HFSCREENC">      0.00000000</i>
   <i type="int" name="NBANDSGWLOW">     0</i>
  </separator>
  <separator name="vdW DFT" >
   <i type="logical" name="LUSE_VDW"> F  </i>
   <i name="Zab_VDW">     -0.84910000</i>
   <i name="PARAM1">      0.12340000</i>
   <i name="PARAM2">      1.00000000</i>
   <i name="PARAM3">      0.00000000</i>
  </separator>
  <separator name="model GW" >
   <i type="int" name="MODEL_GW">     0</i>
   <i name="MODEL_EPS0">     12.24990743</i>
   <i name="MODEL_ALPHA">      1.00000000</i>
  </separator>
  <separator name="linear response parameters" >
   <i type="logical" name="LEPSILON"> F  </i>
   <i type="logical" name="LRPA"> F  </i>
   <i type="logical" name="LNABLA"> F  </i>
   <i type="logical" name="LVEL"> F  </i>
   <i type="int" name="KINTER">     0</i>
   <i name="CSHIFT">      0.10000000</i>
   <i name="OMEGAMAX">     -1.00000000</i>
   <i name="DEG_THRESHOLD">      0.00200000</i>
  </separator>
  <separator name="orbital magnetization" >
   <i type="logical" name="NUCIND"> F  </i>
   <v name="MAGPOS">      0.00000000      0.00000000      0.00000000</v>
   <i type="logical" name="LNICSALL"> T  </i>
   <i type="logical" name="ORBITALMAG"> F  </i>
   <i type="logical" name="LMAGBLOCH"> F  </i>
   <i type="logical" name="LCHIMAG"> F  </i>
   <i type="logical" name="LGAUGE"> T  </i>
   <i type="int" name="MAGATOM">     0</i>
   <v name="MAGDIPOL">      0.00000000      0.00000000      0.00000000</v>
   <v name="AVECCONST">      0.00000000      0.00000000      0.00000000</v>
  </separator>
  <separator name="response functions" >
   <i type="logical" name="LADDER"> F  </i>
   <i type="logical" name="LFXC"> F  </i>
   <i type="logical" name="LHARTREE"> T  </i>
   <i type="int" name="IBSE">     0</i>
   <v type="int" name="KPOINT">    -1     0     0     0</v>
   <i type="logical" name="LTCTE"> F  </i>
   <i type="logical" name="LTETE"> F  </i>
   <i type="logical" name="LTRIPLET"> F  </i>
   <i type="logical" name="LFXCEPS"> F  </i>
   <i type="logical" name="LFXHEG"> F  </i>
   <i type="int" name="NATURALO">     0</i>
   <i type="logical" name="L2ORDER"> F  </i>
   <i type="logical" name="LUSEW"> F  </i>
   <i name="ENCUTGW">     -2.00000000</i>
   <i name="ENCUTGWSOFT">     -2.00000000</i>
   <i name="ENCUTLF">     -1.00000000</i>
   <i type="int" name="LMAXMP2">    -1</i>
   <i name="SCISSOR">      0.00000000</i>
   <i type="int" name="NOMEGA">     0</i>
   <i type="int" name="NOMEGAR">     0</i>
   <i type="int" name="NBANDSGW">    -1</i>
   <i type="int" name="NBANDSO">    -1</i>
   <i type="int" name="NBANDSV">    -1</i>
   <i type="int" name="NELM">     1</i>
   <i type="int" name="NELMHF">     1</i>
   <i type="int" name="DIM">     3</i>
   <i type="int" name="ANTIRES">     0</i>
   <i name="OMEGAMAX">    -30.00000000</i>
   <i name="OMEGAMIN">    -30.00000000</i>
   <i name="OMEGATL">   -200.00000000</i>
   <i type="int" name="OMEGAGRID">     0</i>
   <i name="CSHIFT">     -0.10000000</i>
   <i type="logical" name="SELFENERGY"> F  </i>
   <i type="logical" name="LSPECTRAL"> F  </i>
   <i type="logical" name="LSPECTRALGW"> F  </i>
   <i type="logical" name="LSINGLES"> F  </i>
   <i type="logical" name="LFERMIGW"> F  </i>
   <i type="logical" name="ODDONLYGW"> F  </i>
   <i type="logical" name="EVENONLYGW"> F  </i>
   <i type="int" name="NKREDLFX">     1</i>
   <i type="int" name="NKREDLFY">     1</i>
   <i type="int" name="NKREDLFZ">     1</i>
   <i type="int" name="MAXMEM">  1800</i>
   <i type="int" name="TELESCOPE">     0</i>
   <i type="int" name="TAUPAR">     1</i>
   <i type="int" name="OMEGAPAR">    -1</i>
   <i name="LAMBDA">      1.00000000</i>
  </separator>
  <separator name="External order field" >
   <i name="OFIELD_KAPPA">      0.00000000</i>
   <v name="OFIELD_K">      0.00000000      0.00000000      0.00000000</v>
   <i name="OFIELD_Q6_NEAR">      0.00000000</i>
   <i name="OFIELD_Q6_FAR">      0.00000000</i>
   <i name="OFIELD_A">      0.00000000</i>
  </separator>
 </parameters>
 <atominfo>
  <atoms>      64 </atoms>
  <types>       1 </types>
  <array name="atoms" >
   <dimension dim="1">ion</dimension>
   <field type="string">element</field>
   <field type="int">atomtype</field>
   <set>
    <rc><c>Si</c><c>   1</c></rc>
    <rc><c>Si</c><c>   1</c></rc>
    <rc><c>Si</c><c>   1</c></rc>
    <rc><c>Si</c><c>   1</c></rc>
    <rc><c>Si</c><c>   1</c></rc>
    <rc><c>Si</c><c>   1</c></rc>
    <rc><c>Si</c><c>   1</c></rc>
    <rc><c>Si</c><c>   1</c></rc>
    <rc><c>Si</c><c>   1</c></rc>
    <rc><c>Si</c><c>   1</c></rc>
    <rc><c>Si</c><c>   1</c></rc>
    <rc><c>Si</c><c>   1</c></rc>
    <rc><c>Si</c><c>   1</c></rc>
    <rc><c>Si</c><c>   1</c></rc>
    <rc><c>Si</c><c>   1</c></rc>
    <rc><c>Si</c><c>   1</c></rc>
    <rc><c>Si</c><c>   1</c></rc>
    <rc><c>Si</c><c>   1</c></rc>
    <rc><c>Si</c><c>   1</c></rc>
    <rc><c>Si</c><c>   1</c></rc>
    <rc><c>Si</c><c>   1</c></rc>
    <rc><c>Si</c><c>   1</c></rc>
    <rc><c>Si</c><c>   1</c></rc>
    <rc><c>Si</c><c>   1</c></rc>
    <rc><c>Si</c><c>   1</c></rc>
    <rc><c>Si</c><c>   1</c></rc>
    <rc><c>Si</c><c>   1</c></rc>
    <rc><c>Si</c><c>   1</c></rc>
    <rc><c>Si</c><c>   1</c></rc>
    <rc><c>Si</c><c>   1</c></rc>
    <rc><c>Si</c><c>   1</c></rc>
    <rc><c>Si</c><c>   1</c></rc>
    <rc><c>Si</c><c>   1</c></rc>
    <rc><c>Si</c><c>   1</c></rc>
    <rc><c>Si</c><c>   1</c></rc>
    <rc><c>Si</c><c>   1</c></rc>
    <rc><c>Si</c><c>   1</c></rc>
    <rc><c>Si</c><c>   1</c></rc>
    <rc><c>Si</c><c>   1</c></rc>
    <rc><c>Si</c><c>   1</c></rc>
    <rc><c>Si</c><c>   1</c></rc>
    <rc><c>Si</c><c>   1</c></rc>
    <rc><c>Si</c><c>   1</c></rc>
    <rc><c>Si</c><c>   1</c></rc>
    <rc><c>Si</c><c>   1</c></rc>
    <rc><c>Si</c><c>   1</c></rc>
    <rc><c>Si</c><c>   1</c></rc>
    <rc><c>Si</c><c>   1</c></rc>
    <rc><c>Si</c><c>   1</c></rc>
    <rc><c>Si</c><c>   1</c></rc>
    <rc><c>Si</c><c>   1</c></rc>
    <rc><c>Si</c><c>   1</c></rc>
    <rc><c>Si</c><c>   1</c></rc>
    <rc><c>Si</c><c>   1</c></rc>
    <rc><c>Si</c><c>   1</c></rc>
    <rc><c>Si</c><c>   1</c></rc>
    <rc><c>Si</c><c>   1</c></rc>
    <rc><c>Si</c><c>   1</c></rc>
    <rc><c>Si</c><c>   1</c></rc>
    <rc><c>Si</c><c>   1</c></rc>
    <rc><c>Si</c><c>   1</c></rc>
    <rc><c>Si</c><c>   1</c></rc>
    <rc><c>Si</c><c>   1</c></rc>
    <rc><c>Si</c><c>   1</c></rc>
   </set>
  </array>
  <array name="atomtypes" >
   <dimension dim="1">type</dimension>
   <field type="int">atomspertype</field>
   <field type="string">element</field>
   <field>mass</field>
   <field>valence</field>
   <field type="string">pseudopotential</field>
   <set>
    <rc><c>  64</c><c>Si</c><c>     28.08500000</c><c>      4.00000000</c><c>  PAW_PBE Si 05Jan2001                  </c></rc>
   </set>
  </array>
 </atominfo>
 <structure name="initialpos" >
  <crystal>
   <varray name="basis" >
    <v>      10.93252578       0.00000000       0.00000000 </v>
    <v>       0.00000000      10.93252578       0.00000000 </v>
    <v>       0.00000000       0.00000000      10.93252578 </v>
   </varray>
   <i name="volume">   1306.65679237 </i>
   <varray name="rec_basis" >
    <v>       0.09147017       0.00000000       0.00000000 </v>
    <v>       0.00000000       0.09147017       0.00000000 </v>
    <v>       0.00000000       0.00000000       0.09147017 </v>
   </varray>
  </crystal>
  <varray name="positions" >
   <v>       0.44024411       0.43750000       0.43750000 </v>
   <v>       0.93750000       0.43750000       0.43750000 </v>
   <v>       0.43750000       0.93750000       0.43750000 </v>
   <v>       0.93750000       0.93750000       0.43750000 </v>
   <v>       0.43750000       0.43750000       0.93750000 </v>
   <v>       0.93750000       0.43750000       0.93750000 </v>
   <v>       0.43750000       0.93750000       0.93750000 </v>
   <v>       0.93750000       0.93750000       0.93750000 </v>
   <v>       0.43750000       0.18750000       0.18750000 </v>
   <v>       0.93750000       0.18750000       0.18750000 </v>
   <v>       0.43750000       0.68750000       0.18750000 </v>
   <v>       0.93750000       0.68750000       0.18750000 </v>
   <v>       0.43750000       0.18750000       0.68750000 </v>
   <v>       0.93750000       0.18750000       0.68750000 </v>
   <v>       0.43750000       0.68750000       0.68750000 </v>
   <v>       0.93750000       0.68750000       0.68750000 </v>
   <v>       0.18750000       0.43750000       0.18750000 </v>
   <v>       0.68750000       0.43750000       0.18750000 </v>
   <v>       0.18750000       0.93750000       0.18750000 </v>
   <v>       0.68750000       0.93750000       0.18750000 </v>
   <v>       0.18750000       0.43750000       0.68750000 </v>
   <v>       0.68750000       0.43750000       0.68750000 </v>
   <v>       0.18750000       0.93750000       0.68750000 </v>
   <v>       0.68750000       0.93750000       0.68750000 </v>
   <v>       0.18750000       0.18750000       0.43750000 </v>
   <v>       0.68750000       0.18750000       0.43750000 </v>
   <v>       0.18750000       0.68750000       0.43750000 </v>
   <v>       0.68750000       0.68750000       0.43750000 </v>
   <v>       0.18750000       0.18750000       0.93750000 </v>
   <v>       0.68750000       0.18750000       0.93750000 </v>
   <v>       0.18750000       0.68750000       0.93750000 </v>
   <v>       0.68750000       0.68750000       0.93750000 </v>
   <v>       0.06250000       0.06250000       0.06250000 </v>
   <v>       0.56250000       0.06250000       0.06250000 </v>
   <v>       0.06250000       0.56524411       0.06250000 </v>
   <v>       0.56250000       0.56250000       0.06250000 </v>
   <v>       0.06250000       0.06250000       0.56250000 </v>
   <v>       0.56250000       0.06250000       0.56250000 </v>
   <v>       0.06250000       0.56250000       0.56250000 </v>
   <v>       0.56250000       0.56250000       0.56250000 </v>
   <v>       0.06250000       0.31250000       0.31250000 </v>
   <v>       0.56250000       0.31250000       0.31250000 </v>
   <v>       0.06250000       0.81250000       0.31250000 </v>
   <v>       0.56250000       0.81250000       0.31250000 </v>
   <v>       0.06250000       0.31250000       0.81250000 </v>
   <v>       0.56250000       0.31250000       0.81250000 </v>
   <v>       0.06250000       0.81250000       0.81250000 </v>
   <v>       0.56250000       0.81250000       0.81250000 </v>
   <v>       0.31250000       0.06250000       0.31250000 </v>
   <v>       0.81250000       0.06250000       0.31250000 </v>
   <v>       0.31250000       0.56250000       0.31250000 </v>
   <v>       0.81250000       0.56250000       0.31250000 </v>
   <v>       0.31250000       0.06250000       0.81250000 </v>
   <v>       0.81250000       0.06250000       0.81250000 </v>
   <v>       0.31250000       0.56250000       0.81250000 </v>
   <v>       0.81250000       0.56250000       0.81250000 </v>
   <v>       0.31250000       0.31250000       0.06250000 </v>
   <v>       0.81250000       0.31250000       0.06250000 </v>
   <v>       0.31250000       0.81250000       0.06250000 </v>
   <v>       0.81250000       0.81250000       0.06250000 </v>
   <v>       0.31250000       0.31250000       0.56250000 </v>
   <v>       0.81250000       0.31250000       0.56250000 </v>
   <v>       0.31250000       0.81250000       0.56250000 </v>
   <v>       0.81250000       0.81250000       0.56250000 </v>
  </varray>
 </structure>
 <calculation>
  <scstep>
   <time name="dav">    4.32    4.32</time>
   <time name="total">    4.51    4.52</time>
   <energy>
    <i name="alphaZ">    105.52440745 </i>
    <i name="ewald">  -7265.47091938 </i>
    <i name="hartreedc">   -361.71272596 </i>
    <i name="XCdc">   -597.75714157 </i>
    <i name="pawpsdc">   5639.92317535 </i>
    <i name="pawaedc">  -4513.95313856 </i>
    <i name="eentropy">     -0.00119240 </i>
    <i name="bandstr">    856.86921319 </i>
    <i name="atom">   6596.14994790 </i>
    <i name="e_fr_energy">    459.57162603 </i>
    <i name="e_wo_entrp">    459.57281843 </i>
    <i name="e_0_energy">    459.57222223 </i>
   </energy>
  </scstep>
  <scstep>
   <time name="dav">    4.96    4.96</time>
   <time name="total">    4.96    4.96</time>
   <energy>
    <i name="e_fr_energy">   -300.08274135 </i>
    <i name="e_wo_entrp">   -300.08274135 </i>
    <i name="e_0_energy">   -300.08274135 </i>
   </energy>
  </scstep>
  <scstep>
   <time name="dav">    5.00    5.00</time>
   <time name="total">    5.00    5.01</time>
   <energy>
    <i name="e_fr_energy">   -351.03338837 </i>
    <i name="e_wo_entrp">   -351.03338837 </i>
    <i name="e_0_energy">   -351.03338837 </i>
   </energy>
  </scstep>
  <scstep>
   <time name="dav">    4.99    4.99</time>
   <time name="total">    4.99    4.99</time>
   <energy>
    <i name="e_fr_energy">   -352.27015484 </i>
    <i name="e_wo_entrp">   -352.27015484 </i>
    <i name="e_0_energy">   -352.27015484 </i>
   </energy>
  </scstep>
  <scstep>
   <time name="dav">    4.97    4.97</time>
   <time name="total">    5.20    5.21</time>
   <energy>
    <i name="e_fr_energy">   -352.31345181 </i>
    <i name="e_wo_entrp">   -352.31345181 </i>
    <i name="e_0_energy">   -352.31345181 </i>
   </energy>
  </scstep>
  <scstep>
   <time name="dav">    4.80    4.80</time>
   <time name="total">    5.22    5.23</time>
   <energy>
    <i name="e_fr_energy">   -348.58467988 </i>
    <i name="e_wo_entrp">   -348.58467988 </i>
    <i name="e_0_energy">   -348.58467988 </i>
   </energy>
  </scstep>
  <scstep>
   <time name="dav">    4.78    4.78</time>
   <time name="total">    5.20    5.21</time>
   <energy>
    <i name="e_fr_energy">   -346.87184510 </i>
    <i name="e_wo_entrp">   -346.87184510 </i>
    <i name="e_0_energy">   -346.87184510 </i>
   </energy>
  </scstep>
  <scstep>
   <time name="dav">    4.89    4.89</time>
   <time name="total">    5.31    5.31</time>
   <energy>
    <i name="e_fr_energy">   -346.89819164 </i>
    <i name="e_wo_entrp">   -346.89819164 </i>
    <i name="e_0_energy">   -346.89819164 </i>
   </energy>
  </scstep>
  <scstep>
   <time name="dav">    5.01    5.01</time>
   <time name="total">    5.43    5.43</time>
   <energy>
    <i name="e_fr_energy">   -346.90488479 </i>
    <i name="e_wo_entrp">   -346.90488479 </i>
    <i name="e_0_energy">   -346.90488479 </i>
   </energy>
  </scstep>
  <scstep>
   <time name="dav">    4.69    4.69</time>
   <time name="total">    5.11    5.11</time>
   <energy>
    <i name="e_fr_energy">   -346.90694128 </i>
    <i name="e_wo_entrp">   -346.90694128 </i>
    <i name="e_0_energy">   -346.90694128 </i>
   </energy>
  </scstep>
  <scstep>
   <time name="dav">    4.88    4.88</time>
   <time name="total">    5.30    5.31</time>
   <energy>
    <i name="e_fr_energy">   -346.90691713 </i>
    <i name="e_wo_entrp">   -346.90691713 </i>
    <i name="e_0_energy">   -346.90691713 </i>
   </energy>
  </scstep>
  <scstep>
   <time name="dav">    4.90    4.91</time>
   <time name="total">    5.33    5.34</time>
   <energy>
    <i name="e_fr_energy">   -346.90693191 </i>
    <i name="e_wo_entrp">   -346.90693191 </i>
    <i name="e_0_energy">   -346.90693191 </i>
   </energy>
  </scstep>
  <scstep>
   <time name="dav">    4.85    4.85</time>
   <time name="total">    5.27    5.28</time>
   <energy>
    <i name="e_fr_energy">   -346.90693260 </i>
    <i name="e_wo_entrp">   -346.90693260 </i>
    <i name="e_0_energy">   -346.90693260 </i>
   </energy>
  </scstep>
  <scstep>
   <time name="dav">    5.07    5.07</time>
   <time name="total">    5.49    5.49</time>
   <energy>
    <i name="e_fr_energy">   -346.90693316 </i>
    <i name="e_wo_entrp">   -346.90693316 </i>
    <i name="e_0_energy">   -346.90693316 </i>
   </energy>
  </scstep>
  <scstep>
   <time name="dav">    4.33    4.33</time>
   <time name="total">    4.75    4.75</time>
   <energy>
    <i name="e_fr_energy">   -346.90693291 </i>
    <i name="e_wo_entrp">   -346.90693291 </i>
    <i name="e_0_energy">   -346.90693291 </i>
   </energy>
  </scstep>
  <scstep>
   <time name="dav">    3.32    3.32</time>
   <time name="total">    3.74    3.79</time>
   <energy>
    <i name="e_fr_energy">   -346.90693300 </i>
    <i name="e_wo_entrp">   -346.90693300 </i>
    <i name="e_0_energy">   -346.90693300 </i>
   </energy>
  </scstep>
  <scstep>
   <time name="dav">    3.36    3.36</time>
   <time name="total">    3.78    3.80</time>
   <energy>
    <i name="e_fr_energy">   -346.90693298 </i>
    <i name="e_wo_entrp">   -346.90693298 </i>
    <i name="e_0_energy">   -346.90693298 </i>
   </energy>
  </scstep>
  <scstep>
   <time name="dav">    3.33    3.33</time>
   <time name="total">    3.75    3.80</time>
   <energy>
    <i name="e_fr_energy">   -346.90693300 </i>
    <i name="e_wo_entrp">   -346.90693300 </i>
    <i name="e_0_energy">   -346.90693300 </i>
   </energy>
  </scstep>
  <scstep>
   <time name="dav">    3.32    3.33</time>
   <time name="total">    3.51    3.52</time>
   <energy>
    <i name="alphaZ">    105.52440745 </i>
    <i name="ewald">  -7265.47091938 </i>
    <i name="hartreedc">   -485.14345065 </i>
    <i name="XCdc">   -577.61229284 </i>
    <i name="pawpsdc">  27883.43655347 </i>
    <i name="pawaedc"> -26764.15448175 </i>
    <i name="eentropy">      0.00000000 </i>
    <i name="bandstr">    160.36330279 </i>
    <i name="atom">   6596.14994790 </i>
    <i name="e_fr_energy">   -346.90693300 </i>
    <i name="e_wo_entrp">   -346.90693300 </i>
    <i name="e_0_energy">   -346.90693300 </i>
   </energy>
  </scstep>
  <structure>
   <crystal>
    <varray name="basis" >
     <v>      10.93252578       0.00000000       0.00000000 </v>
     <v>       0.00000000      10.93252578       0.00000000 </v>
     <v>       0.00000000       0.00000000      10.93252578 </v>
    </varray>
    <i name="volume">   1306.65679237 </i>
    <varray name="rec_basis" >
     <v>       0.09147017       0.00000000       0.00000000 </v>
     <v>       0.00000000       0.09147017       0.00000000 </v>
     <v>       0.00000000       0.00000000       0.09147017 </v>
    </varray>
   </crystal>
   <varray name="positions" >
    <v>       0.44024411       0.43750000       0.43750000 </v>
    <v>       0.93750000       0.43750000       0.43750000 </v>
    <v>       0.43750000       0.93750000       0.43750000 </v>
    <v>       0.93750000       0.93750000       0.43750000 </v>
    <v>       0.43750000       0.43750000       0.93750000 </v>
    <v>       0.93750000       0.43750000       0.93750000 </v>
    <v>       0.43750000       0.93750000       0.93750000 </v>
    <v>       0.93750000       0.93750000       0.93750000 </v>
    <v>       0.43750000       0.18750000       0.18750000 </v>
    <v>       0.93750000       0.18750000       0.18750000 </v>
    <v>       0.43750000       0.68750000       0.18750000 </v>
    <v>       0.93750000       0.68750000       0.18750000 </v>
    <v>       0.43750000       0.18750000       0.68750000 </v>
    <v>       0.93750000       0.18750000       0.68750000 </v>
    <v>       0.43750000       0.68750000       0.68750000 </v>
    <v>       0.93750000       0.68750000       0.68750000 </v>
    <v>       0.18750000       0.43750000       0.18750000 </v>
    <v>       0.68750000       0.43750000       0.18750000 </v>
    <v>       0.18750000       0.93750000       0.18750000 </v>
    <v>       0.68750000       0.93750000       0.18750000 </v>
    <v>       0.18750000       0.43750000       0.68750000 </v>
    <v>       0.68750000       0.43750000       0.68750000 </v>
    <v>       0.18750000       0.93750000       0.68750000 </v>
    <v>       0.68750000       0.93750000       0.68750000 </v>
    <v>       0.18750000       0.18750000       0.43750000 </v>
    <v>       0.68750000       0.18750000       0.43750000 </v>
    <v>       0.18750000       0.68750000       0.43750000 </v>
    <v>       0.68750000       0.68750000       0.43750000 </v>
    <v>       0.18750000       0.18750000       0.93750000 </v>
    <v>       0.68750000       0.18750000       0.93750000 </v>
    <v>       0.18750000       0.68750000       0.93750000 </v>
    <v>       0.68750000       0.68750000       0.93750000 </v>
    <v>       0.06250000       0.06250000       0.06250000 </v>
    <v>       0.56250000       0.06250000       0.06250000 </v>
    <v>       0.06250000       0.56524411       0.06250000 </v>
    <v>       0.56250000       0.56250000       0.06250000 </v>
    <v>       0.06250000       0.06250000       0.56250000 </v>
    <v>       0.56250000       0.06250000       0.56250000 </v>
    <v>       0.06250000       0.56250000       0.56250000 </v>
    <v>       0.56250000       0.56250000       0.56250000 </v>
    <v>       0.06250000       0.31250000       0.31250000 </v>
    <v>       0.56250000       0.31250000       0.31250000 </v>
    <v>       0.06250000       0.81250000       0.31250000 </v>
    <v>       0.56250000       0.81250000       0.31250000 </v>
    <v>       0.06250000       0.31250000       0.81250000 </v>
    <v>       0.56250000       0.31250000       0.81250000 </v>
    <v>       0.06250000       0.81250000       0.81250000 </v>
    <v>       0.56250000       0.81250000       0.81250000 </v>
    <v>       0.31250000       0.06250000       0.31250000 </v>
    <v>       0.81250000       0.06250000       0.31250000 </v>
    <v>       0.31250000       0.56250000       0.31250000 </v>
    <v>       0.81250000       0.56250000       0.31250000 </v>
    <v>       0.31250000       0.06250000       0.81250000 </v>
    <v>       0.81250000       0.06250000       0.81250000 </v>
    <v>       0.31250000       0.56250000       0.81250000 </v>
    <v>       0.81250000       0.56250000       0.81250000 </v>
    <v>       0.31250000       0.31250000       0.06250000 </v>
    <v>       0.81250000       0.31250000       0.06250000 </v>
    <v>       0.31250000       0.81250000       0.06250000 </v>
    <v>       0.81250000       0.81250000       0.06250000 </v>
    <v>       0.31250000       0.31250000       0.56250000 </v>
    <v>       0.81250000       0.31250000       0.56250000 </v>
    <v>       0.31250000       0.81250000       0.56250000 </v>
    <v>       0.81250000       0.81250000       0.56250000 </v>
   </varray>
  </structure>
  <varray name="forces" >
   <v>      -0.38651445       0.00613724       0.00066817 </v>
   <v>       0.00179638      -0.00143161       0.00088996 </v>
   <v>       0.00206517      -0.00053399       0.00074430 </v>
   <v>       0.00052953       0.00066352       0.00063022 </v>
   <v>       0.00220970      -0.00143222       0.00124537 </v>
   <v>       0.06079460       0.09307782       0.06096432 </v>
   <v>      -0.01091393       0.00066118       0.00070692 </v>
   <v>       0.00147995      -0.00027634       0.00090475 </v>
   <v>      -0.01348528       0.00339635       0.00342657 </v>
   <v>      -0.00093427      -0.00005086       0.00113663 </v>
   <v>      -0.01369429       0.00117783      -0.00143916 </v>
   <v>      -0.06610178       0.09603913       0.06589016 </v>
   <v>      -0.01352911      -0.00319482       0.00341771 </v>
   <v>      -0.00065440       0.00038502       0.00083324 </v>
   <v>      -0.01356633       0.00344209      -0.00209667 </v>
   <v>      -0.00123817      -0.00170138       0.00069967 </v>
   <v>      -0.05531793       0.09041689      -0.05535824 </v>
   <v>       0.00490848      -0.00419996      -0.00693500 </v>
   <v>       0.00011104      -0.00050753      -0.00276403 </v>
   <v>       0.00038337       0.00043529       0.00114421 </v>
   <v>       0.00439721       0.00123734      -0.00645109 </v>
   <v>       0.00511763       0.00890824       0.00503156 </v>
   <v>       0.00031710       0.00089143       0.00122763 </v>
   <v>       0.00027257      -0.00030426      -0.00259152 </v>
   <v>       0.00630700       0.00618064      -0.00327051 </v>
   <v>       0.00655902      -0.00623263      -0.00353797 </v>
   <v>       0.00686629      -0.00702149       0.00175722 </v>
   <v>       0.00648809       0.01189200       0.00207399 </v>
   <v>       0.00192536      -0.00213686      -0.00114085 </v>
   <v>       0.00162005       0.00246383      -0.00088447 </v>
   <v>       0.06713982       0.09766864      -0.06588324 </v>
   <v>       0.00194628      -0.00332390      -0.00098320 </v>
   <v>      -0.00053471       0.00130545       0.00075575 </v>
   <v>       0.00621689       0.00051099       0.00068562 </v>
   <v>       0.00061506      -0.38649173       0.00062131 </v>
   <v>      -0.00147492       0.00252842       0.00092748 </v>
   <v>       0.00061190       0.00042688       0.00065601 </v>
   <v>      -0.00147316       0.00150254       0.00121058 </v>
   <v>      -0.00027395       0.00222786       0.00090677 </v>
   <v>       0.09583290       0.05456319       0.06608572 </v>
   <v>      -0.00294748       0.00473605      -0.00647278 </v>
   <v>       0.09558024      -0.06509333      -0.06422882 </v>
   <v>      -0.00215987       0.00519770       0.00502640 </v>
   <v>      -0.00170726       0.00009565      -0.00306090 </v>
   <v>       0.00328813       0.00499367       0.00495914 </v>
   <v>      -0.00124193      -0.00019430      -0.00278854 </v>
   <v>       0.00222619       0.00504286      -0.00644602 </v>
   <v>       0.00644993       0.00032867       0.00115720 </v>
   <v>      -0.00119792      -0.00089056       0.00147912 </v>
   <v>       0.00089052      -0.00066535       0.00048733 </v>
   <v>       0.09576098      -0.07374665       0.06357417 </v>
   <v>       0.00249693      -0.01378071      -0.00186914 </v>
   <v>       0.00590657      -0.00070058       0.00090344 </v>
   <v>      -0.00076792      -0.00074635       0.00051244 </v>
   <v>      -0.00420911      -0.01413466       0.00366051 </v>
   <v>      -0.00200211      -0.01348272      -0.00202145 </v>
   <v>      -0.00698993       0.00688696      -0.00356438 </v>
   <v>       0.00622502       0.00635459       0.00203387 </v>
   <v>       0.01181991       0.00648392      -0.00344582 </v>
   <v>      -0.00622870       0.00655028       0.00201756 </v>
   <v>       0.09491865       0.06197315      -0.06119716 </v>
   <v>      -0.00213976       0.00192011      -0.00067545 </v>
   <v>      -0.00328330       0.00191215      -0.00147488 </v>
   <v>       0.00250751       0.00165924      -0.00047172 </v>
  </varray>
  <varray name="stress" >
   <v>       0.00170859       0.00007847      -0.33497832 </v>
   <v>       0.00007850       0.00155827       0.33480462 </v>
   <v>      -0.33497831       0.33480463       0.02062469 </v>
  </varray>
  <energy>
   <i name="e_fr_energy">   -346.90693300 </i>
   <i name="e_wo_entrp">   -346.90693300 </i>
   <i name="e_0_energy">      0.00000000 </i>
  </energy>
  <time name="totalsc">  102.00  102.23</time>
  <eigenvalues>
   <array>
    <dimension dim="1">band</dimension>
    <dimension dim="2">kpoint</dimension>
    <dimension dim="3">spin</dimension>
    <field>eigene</field>
    <field>occ</field>
    <set>
     <set comment="spin 1">
      <set comment="kpoint 1">
       <r>   -5.9932    1.0000 </r>
       <r>   -5.4687    1.0000 </r>
       <r>   -5.4647    1.0000 </r>
       <r>   -5.4609    1.0000 </r>
       <r>   -4.9693    1.0000 </r>
       <r>   -4.9655    1.0000 </r>
       <r>   -4.9617    1.0000 </r>
       <r>   -4.5322    1.0000 </r>
       <r>   -4.4364    1.0000 </r>
       <r>   -4.4325    1.0000 </r>
       <r>   -4.4284    1.0000 </r>
       <r>   -4.0237    1.0000 </r>
       <r>   -4.0190    1.0000 </r>
       <r>   -4.0183    1.0000 </r>
       <r>   -4.0163    1.0000 </r>
       <r>   -4.0139    1.0000 </r>
       <r>   -4.0076    1.0000 </r>
       <r>   -3.8283    1.0000 </r>
       <r>   -3.8243    1.0000 </r>
       <r>   -3.8202    1.0000 </r>
       <r>   -3.3326    1.0000 </r>
       <r>   -3.3289    1.0000 </r>
       <r>   -3.3236    1.0000 </r>
       <r>   -2.9627    1.0000 </r>
       <r>   -2.9591    1.0000 </r>
       <r>   -2.9558    1.0000 </r>
       <r>   -2.7984    1.0000 </r>
       <r>   -2.7932    1.0000 </r>
       <r>   -2.7925    1.0000 </r>
       <r>   -2.7910    1.0000 </r>
       <r>   -2.7884    1.0000 </r>
       <r>   -2.7814    1.0000 </r>
       <r>   -1.2568    1.0000 </r>
       <r>   -1.2518    1.0000 </r>
       <r>   -1.2505    1.0000 </r>
       <r>   -1.2486    1.0000 </r>
       <r>   -1.2457    1.0000 </r>
       <r>   -1.2399    1.0000 </r>
       <r>   -1.1546    1.0000 </r>
       <r>   -1.1511    1.0000 </r>
       <r>   -1.1476    1.0000 </r>
       <r>   -1.0376    1.0000 </r>
       <r>   -1.0327    1.0000 </r>
       <r>   -1.0277    1.0000 </r>
       <r>   -0.9530    1.0000 </r>
       <r>   -0.9478    1.0000 </r>
       <r>   -0.9392    1.0000 </r>
       <r>   -0.2446    1.0000 </r>
       <r>   -0.1672    1.0000 </r>
       <r>   -0.1638    1.0000 </r>
       <r>   -0.1626    1.0000 </r>
       <r>   -0.1601    1.0000 </r>
       <r>   -0.1559    1.0000 </r>
       <r>   -0.1511    1.0000 </r>
       <r>    0.7093    1.0000 </r>
       <r>    0.7136    1.0000 </r>
       <r>    0.7200    1.0000 </r>
       <r>    1.0430    1.0000 </r>
       <r>    1.0469    1.0000 </r>
       <r>    1.0514    1.0000 </r>
       <r>    1.6516    1.0000 </r>
       <r>    1.6541    1.0000 </r>
       <r>    1.6569    1.0000 </r>
       <r>    1.6581    1.0000 </r>
       <r>    1.6596    1.0000 </r>
       <r>    1.6609    1.0000 </r>
       <r>    1.7133    1.0000 </r>
       <r>    1.7155    1.0000 </r>
       <r>    1.7199    1.0000 </r>
       <r>    2.2661    1.0000 </r>
       <r>    2.2677    1.0000 </r>
       <r>    2.2693    1.0000 </r>
       <r>    2.3648    1.0000 </r>
       <r>    2.3670    1.0000 </r>
       <r>    2.3702    1.0000 </r>
       <r>    2.3725    1.0000 </r>
       <r>    2.3740    1.0000 </r>
       <r>    2.3761    1.0000 </r>
       <r>    2.4208    1.0000 </r>
       <r>    2.4256    1.0000 </r>
       <r>    2.4291    1.0000 </r>
       <r>    2.7292    1.0000 </r>
       <r>    2.7328    1.0000 </r>
       <r>    2.7340    1.0000 </r>
       <r>    2.7347    1.0000 </r>
       <r>    2.7379    1.0000 </r>
       <r>    2.7411    1.0000 </r>
       <r>    2.9964    1.0000 </r>
       <r>    2.9995    1.0000 </r>
       <r>    3.0018    1.0000 </r>
       <r>    3.0099    1.0000 </r>
       <r>    3.0134    1.0000 </r>
       <r>    3.0174    1.0000 </r>
       <r>    3.3585    1.0000 </r>
       <r>    3.3620    1.0000 </r>
       <r>    3.3646    1.0000 </r>
       <r>    3.3821    1.0000 </r>
       <r>    3.3849    1.0000 </r>
       <r>    3.3868    1.0000 </r>
       <r>    3.4638    1.0000 </r>
       <r>    3.4658    1.0000 </r>
       <r>    3.4703    1.0000 </r>
       <r>    3.7339    1.0000 </r>
       <r>    3.7387    1.0000 </r>
       <r>    3.7406    1.0000 </r>
       <r>    3.7417    1.0000 </r>
       <r>    3.7435    1.0000 </r>
       <r>    3.7491    1.0000 </r>
       <r>    3.7774    1.0000 </r>
       <r>    3.7798    1.0000 </r>
       <r>    3.7852    1.0000 </r>
       <r>    4.0404    1.0000 </r>
       <r>    4.0950    1.0000 </r>
       <r>    4.0978    1.0000 </r>
       <r>    4.1013    1.0000 </r>
       <r>    4.3376    1.0000 </r>
       <r>    4.3402    1.0000 </r>
       <r>    4.3451    1.0000 </r>
       <r>    4.4006    1.0000 </r>
       <r>    4.4053    1.0000 </r>
       <r>    4.4118    1.0000 </r>
       <r>    4.5588    1.0000 </r>
       <r>    4.5670    1.0000 </r>
       <r>    4.8655    1.0000 </r>
       <r>    4.8691    1.0000 </r>
       <r>    4.8757    1.0000 </r>
       <r>    5.3451    1.0000 </r>
       <r>    5.3544    1.0000 </r>
       <r>    6.5598    0.0000 </r>
       <r>    6.5634    0.0000 </r>
       <r>    6.5670    0.0000 </r>
       <r>    7.0005    0.0000 </r>
       <r>    7.0030    0.0000 </r>
       <r>    7.0099    0.0000 </r>
       <r>    7.2337    0.0000 </r>
       <r>    7.4870    0.0000 </r>
       <r>    7.4896    0.0000 </r>
       <r>    7.4956    0.0000 </r>
       <r>    7.6157    0.0000 </r>
       <r>    7.6196    0.0000 </r>
       <r>    7.6232    0.0000 </r>
       <r>    7.7758    0.0000 </r>
       <r>    7.7800    0.0000 </r>
       <r>    7.7831    0.0000 </r>
       <r>    7.7979    0.0000 </r>
       <r>    7.8012    0.0000 </r>
       <r>    7.8050    0.0000 </r>
       <r>    8.0245    0.0000 </r>
       <r>    8.0271    0.0000 </r>
       <r>    8.0291    0.0000 </r>
       <r>    8.0304    0.0000 </r>
       <r>    8.0341    0.0000 </r>
       <r>    8.0377    0.0000 </r>
       <r>    8.0815    0.0000 </r>
       <r>    8.2920    0.0000 </r>
       <r>    8.2944    0.0000 </r>
       <r>    8.2986    0.0000 </r>
       <r>    8.4957    0.0000 </r>
       <r>    8.4980    0.0000 </r>
       <r>    8.5013    0.0000 </r>
       <r>    8.5045    0.0000 </r>
       <r>    8.5098    0.0000 </r>
       <r>    8.5210    0.0000 </r>
       <r>    8.5480    0.0000 </r>
      </set>
      <set comment="kpoint 2">
       <r>   -5.9931    1.0000 </r>
       <r>   -5.4691    1.0000 </r>
       <r>   -5.4633    1.0000 </r>
       <r>   -5.4623    1.0000 </r>
       <r>   -4.9696    1.0000 </r>
       <r>   -4.9638    1.0000 </r>
       <r>   -4.9630    1.0000 </r>
       <r>   -4.5313    1.0000 </r>
       <r>   -4.4363    1.0000 </r>
       <r>   -4.4306    1.0000 </r>
       <r>   -4.4294    1.0000 </r>
       <r>   -4.0238    1.0000 </r>
       <r>   -4.0226    1.0000 </r>
       <r>   -4.0155    1.0000 </r>
       <r>   -4.0140    1.0000 </r>
       <r>   -4.0132    1.0000 </r>
       <r>   -4.0125    1.0000 </r>
       <r>   -3.8288    1.0000 </r>
       <r>   -3.8244    1.0000 </r>
       <r>   -3.8217    1.0000 </r>
       <r>   -3.3311    1.0000 </r>
       <r>   -3.3250    1.0000 </r>
       <r>   -3.3237    1.0000 </r>
       <r>   -2.9632    1.0000 </r>
       <r>   -2.9593    1.0000 </r>
       <r>   -2.9562    1.0000 </r>
       <r>   -2.7987    1.0000 </r>
       <r>   -2.7954    1.0000 </r>
       <r>   -2.7900    1.0000 </r>
       <r>   -2.7889    1.0000 </r>
       <r>   -2.7873    1.0000 </r>
       <r>   -2.7863    1.0000 </r>
       <r>   -1.2573    1.0000 </r>
       <r>   -1.2529    1.0000 </r>
       <r>   -1.2476    1.0000 </r>
       <r>   -1.2462    1.0000 </r>
       <r>   -1.2443    1.0000 </r>
       <r>   -1.2425    1.0000 </r>
       <r>   -1.1531    1.0000 </r>
       <r>   -1.1505    1.0000 </r>
       <r>   -1.1469    1.0000 </r>
       <r>   -1.0337    1.0000 </r>
       <r>   -1.0325    1.0000 </r>
       <r>   -1.0268    1.0000 </r>
       <r>   -0.9560    1.0000 </r>
       <r>   -0.9503    1.0000 </r>
       <r>   -0.9460    1.0000 </r>
       <r>   -0.2481    1.0000 </r>
       <r>   -0.1660    1.0000 </r>
       <r>   -0.1646    1.0000 </r>
       <r>   -0.1590    1.0000 </r>
       <r>   -0.1559    1.0000 </r>
       <r>   -0.1550    1.0000 </r>
       <r>   -0.1516    1.0000 </r>
       <r>    0.7084    1.0000 </r>
       <r>    0.7112    1.0000 </r>
       <r>    0.7164    1.0000 </r>
       <r>    1.0447    1.0000 </r>
       <r>    1.0469    1.0000 </r>
       <r>    1.0498    1.0000 </r>
       <r>    1.6526    1.0000 </r>
       <r>    1.6553    1.0000 </r>
       <r>    1.6567    1.0000 </r>
       <r>    1.6577    1.0000 </r>
       <r>    1.6593    1.0000 </r>
       <r>    1.6605    1.0000 </r>
       <r>    1.7148    1.0000 </r>
       <r>    1.7178    1.0000 </r>
       <r>    1.7190    1.0000 </r>
       <r>    2.2644    1.0000 </r>
       <r>    2.2655    1.0000 </r>
       <r>    2.2677    1.0000 </r>
       <r>    2.3679    1.0000 </r>
       <r>    2.3691    1.0000 </r>
       <r>    2.3700    1.0000 </r>
       <r>    2.3721    1.0000 </r>
       <r>    2.3755    1.0000 </r>
       <r>    2.3778    1.0000 </r>
       <r>    2.4242    1.0000 </r>
       <r>    2.4272    1.0000 </r>
       <r>    2.4302    1.0000 </r>
       <r>    2.7292    1.0000 </r>
       <r>    2.7307    1.0000 </r>
       <r>    2.7346    1.0000 </r>
       <r>    2.7364    1.0000 </r>
       <r>    2.7378    1.0000 </r>
       <r>    2.7400    1.0000 </r>
       <r>    2.9985    1.0000 </r>
       <r>    3.0006    1.0000 </r>
       <r>    3.0016    1.0000 </r>
       <r>    3.0120    1.0000 </r>
       <r>    3.0149    1.0000 </r>
       <r>    3.0176    1.0000 </r>
       <r>    3.3559    1.0000 </r>
       <r>    3.3609    1.0000 </r>
       <r>    3.3629    1.0000 </r>
       <r>    3.3783    1.0000 </r>
       <r>    3.3818    1.0000 </r>
       <r>    3.3846    1.0000 </r>
       <r>    3.4651    1.0000 </r>
       <r>    3.4671    1.0000 </r>
       <r>    3.4709    1.0000 </r>
       <r>    3.7305    1.0000 </r>
       <r>    3.7358    1.0000 </r>
       <r>    3.7390    1.0000 </r>
       <r>    3.7405    1.0000 </r>
       <r>    3.7425    1.0000 </r>
       <r>    3.7436    1.0000 </r>
       <r>    3.7792    1.0000 </r>
       <r>    3.7813    1.0000 </r>
       <r>    3.7855    1.0000 </r>
       <r>    4.0368    1.0000 </r>
       <r>    4.0979    1.0000 </r>
       <r>    4.1007    1.0000 </r>
       <r>    4.1018    1.0000 </r>
       <r>    4.3399    1.0000 </r>
       <r>    4.3421    1.0000 </r>
       <r>    4.3468    1.0000 </r>
       <r>    4.3980    1.0000 </r>
       <r>    4.4008    1.0000 </r>
       <r>    4.4052    1.0000 </r>
       <r>    4.5617    1.0000 </r>
       <r>    4.5664    1.0000 </r>
       <r>    4.8688    1.0000 </r>
       <r>    4.8716    1.0000 </r>
       <r>    4.8777    1.0000 </r>
       <r>    5.3493    1.0000 </r>
       <r>    5.3548    1.0000 </r>
       <r>    6.5619    0.0000 </r>
       <r>    6.5657    0.0000 </r>
       <r>    6.5674    0.0000 </r>
       <r>    7.0012    0.0000 </r>
       <r>    7.0044    0.0000 </r>
       <r>    7.0099    0.0000 </r>
       <r>    7.2351    0.0000 </r>
       <r>    7.4888    0.0000 </r>
       <r>    7.4921    0.0000 </r>
       <r>    7.4959    0.0000 </r>
       <r>    7.6153    0.0000 </r>
       <r>    7.6175    0.0000 </r>
       <r>    7.6218    0.0000 </r>
       <r>    7.7779    0.0000 </r>
       <r>    7.7800    0.0000 </r>
       <r>    7.7826    0.0000 </r>
       <r>    7.7990    0.0000 </r>
       <r>    7.8029    0.0000 </r>
       <r>    7.8041    0.0000 </r>
       <r>    8.0233    0.0000 </r>
       <r>    8.0248    0.0000 </r>
       <r>    8.0283    0.0000 </r>
       <r>    8.0295    0.0000 </r>
       <r>    8.0326    0.0000 </r>
       <r>    8.0342    0.0000 </r>
       <r>    8.0836    0.0000 </r>
       <r>    8.2928    0.0000 </r>
       <r>    8.2947    0.0000 </r>
       <r>    8.2981    0.0000 </r>
       <r>    8.4944    0.0000 </r>
       <r>    8.4978    0.0000 </r>
       <r>    8.5015    0.0000 </r>
       <r>    8.5039    0.0000 </r>
       <r>    8.5119    0.0000 </r>
       <r>    8.5192    0.0000 </r>
       <r>    8.5386    0.0000 </r>
      </set>
      <set comment="kpoint 3">
       <r>   -5.9932    1.0000 </r>
       <r>   -5.4676    1.0000 </r>
       <r>   -5.4644    1.0000 </r>
       <r>   -5.4620    1.0000 </r>
       <r>   -4.9684    1.0000 </r>
       <r>   -4.9652    1.0000 </r>
       <r>   -4.9631    1.0000 </r>
       <r>   -4.5332    1.0000 </r>
       <r>   -4.4359    1.0000 </r>
       <r>   -4.4323    1.0000 </r>
       <r>   -4.4301    1.0000 </r>
       <r>   -4.0220    1.0000 </r>
       <r>   -4.0194    1.0000 </r>
       <r>   -4.0170    1.0000 </r>
       <r>   -4.0166    1.0000 </r>
       <r>   -4.0119    1.0000 </r>
       <r>   -4.0091    1.0000 </r>
       <r>   -3.8271    1.0000 </r>
       <r>   -3.8242    1.0000 </r>
       <r>   -3.8196    1.0000 </r>
       <r>   -3.3342    1.0000 </r>
       <r>   -3.3285    1.0000 </r>
       <r>   -3.3276    1.0000 </r>
       <r>   -2.9621    1.0000 </r>
       <r>   -2.9591    1.0000 </r>
       <r>   -2.9555    1.0000 </r>
       <r>   -2.7968    1.0000 </r>
       <r>   -2.7945    1.0000 </r>
       <r>   -2.7915    1.0000 </r>
       <r>   -2.7911    1.0000 </r>
       <r>   -2.7867    1.0000 </r>
       <r>   -2.7826    1.0000 </r>
       <r>   -1.2553    1.0000 </r>
       <r>   -1.2541    1.0000 </r>
       <r>   -1.2492    1.0000 </r>
       <r>   -1.2489    1.0000 </r>
       <r>   -1.2468    1.0000 </r>
       <r>   -1.2421    1.0000 </r>
       <r>   -1.1554    1.0000 </r>
       <r>   -1.1512    1.0000 </r>
       <r>   -1.1487    1.0000 </r>
       <r>   -1.0382    1.0000 </r>
       <r>   -1.0329    1.0000 </r>
       <r>   -1.0319    1.0000 </r>
       <r>   -0.9481    1.0000 </r>
       <r>   -0.9452    1.0000 </r>
       <r>   -0.9346    1.0000 </r>
       <r>   -0.2410    1.0000 </r>
       <r>   -0.1679    1.0000 </r>
       <r>   -0.1648    1.0000 </r>
       <r>   -0.1611    1.0000 </r>
       <r>   -0.1603    1.0000 </r>
       <r>   -0.1588    1.0000 </r>
       <r>   -0.1563    1.0000 </r>
       <r>    0.7118    1.0000 </r>
       <r>    0.7147    1.0000 </r>
       <r>    0.7232    1.0000 </r>
       <r>    1.0440    1.0000 </r>
       <r>    1.0471    1.0000 </r>
       <r>    1.0500    1.0000 </r>
       <r>    1.6529    1.0000 </r>
       <r>    1.6542    1.0000 </r>
       <r>    1.6561    1.0000 </r>
       <r>    1.6577    1.0000 </r>
       <r>    1.6588    1.0000 </r>
       <r>    1.6610    1.0000 </r>
       <r>    1.7124    1.0000 </r>
       <r>    1.7152    1.0000 </r>
       <r>    1.7176    1.0000 </r>
       <r>    2.2677    1.0000 </r>
       <r>    2.2699    1.0000 </r>
       <r>    2.2711    1.0000 </r>
       <r>    2.3649    1.0000 </r>
       <r>    2.3660    1.0000 </r>
       <r>    2.3688    1.0000 </r>
       <r>    2.3695    1.0000 </r>
       <r>    2.3733    1.0000 </r>
       <r>    2.3748    1.0000 </r>
       <r>    2.4201    1.0000 </r>
       <r>    2.4224    1.0000 </r>
       <r>    2.4265    1.0000 </r>
       <r>    2.7307    1.0000 </r>
       <r>    2.7340    1.0000 </r>
       <r>    2.7343    1.0000 </r>
       <r>    2.7352    1.0000 </r>
       <r>    2.7372    1.0000 </r>
       <r>    2.7391    1.0000 </r>
       <r>    2.9967    1.0000 </r>
       <r>    2.9974    1.0000 </r>
       <r>    3.0002    1.0000 </r>
       <r>    3.0098    1.0000 </r>
       <r>    3.0127    1.0000 </r>
       <r>    3.0145    1.0000 </r>
       <r>    3.3612    1.0000 </r>
       <r>    3.3638    1.0000 </r>
       <r>    3.3663    1.0000 </r>
       <r>    3.3841    1.0000 </r>
       <r>    3.3876    1.0000 </r>
       <r>    3.3906    1.0000 </r>
       <r>    3.4635    1.0000 </r>
       <r>    3.4653    1.0000 </r>
       <r>    3.4678    1.0000 </r>
       <r>    3.7398    1.0000 </r>
       <r>    3.7407    1.0000 </r>
       <r>    3.7410    1.0000 </r>
       <r>    3.7433    1.0000 </r>
       <r>    3.7460    1.0000 </r>
       <r>    3.7518    1.0000 </r>
       <r>    3.7773    1.0000 </r>
       <r>    3.7792    1.0000 </r>
       <r>    3.7824    1.0000 </r>
       <r>    4.0445    1.0000 </r>
       <r>    4.0941    1.0000 </r>
       <r>    4.0950    1.0000 </r>
       <r>    4.0981    1.0000 </r>
       <r>    4.3367    1.0000 </r>
       <r>    4.3392    1.0000 </r>
       <r>    4.3415    1.0000 </r>
       <r>    4.4059    1.0000 </r>
       <r>    4.4079    1.0000 </r>
       <r>    4.4176    1.0000 </r>
       <r>    4.5593    1.0000 </r>
       <r>    4.5642    1.0000 </r>
       <r>    4.8642    1.0000 </r>
       <r>    4.8675    1.0000 </r>
       <r>    4.8707    1.0000 </r>
       <r>    5.3448    1.0000 </r>
       <r>    5.3501    1.0000 </r>
       <r>    6.5592    0.0000 </r>
       <r>    6.5611    0.0000 </r>
       <r>    6.5650    0.0000 </r>
       <r>    6.9994    0.0000 </r>
       <r>    7.0042    0.0000 </r>
       <r>    7.0076    0.0000 </r>
       <r>    7.2323    0.0000 </r>
       <r>    7.4853    0.0000 </r>
       <r>    7.4893    0.0000 </r>
       <r>    7.4927    0.0000 </r>
       <r>    7.6172    0.0000 </r>
       <r>    7.6216    0.0000 </r>
       <r>    7.6239    0.0000 </r>
       <r>    7.7752    0.0000 </r>
       <r>    7.7806    0.0000 </r>
       <r>    7.7821    0.0000 </r>
       <r>    7.7984    0.0000 </r>
       <r>    7.8001    0.0000 </r>
       <r>    7.8033    0.0000 </r>
       <r>    8.0278    0.0000 </r>
       <r>    8.0292    0.0000 </r>
       <r>    8.0302    0.0000 </r>
       <r>    8.0325    0.0000 </r>
       <r>    8.0357    0.0000 </r>
       <r>    8.0377    0.0000 </r>
       <r>    8.0793    0.0000 </r>
       <r>    8.2919    0.0000 </r>
       <r>    8.2952    0.0000 </r>
       <r>    8.2972    0.0000 </r>
       <r>    8.4952    0.0000 </r>
       <r>    8.4999    0.0000 </r>
       <r>    8.5011    0.0000 </r>
       <r>    8.5065    0.0000 </r>
       <r>    8.5088    0.0000 </r>
       <r>    8.5159    0.0000 </r>
       <r>    8.5406    0.0000 </r>
      </set>
      <set comment="kpoint 4">
       <r>   -5.9932    1.0000 </r>
       <r>   -5.4690    1.0000 </r>
       <r>   -5.4640    1.0000 </r>
       <r>   -5.4613    1.0000 </r>
       <r>   -4.9697    1.0000 </r>
       <r>   -4.9648    1.0000 </r>
       <r>   -4.9621    1.0000 </r>
       <r>   -4.5323    1.0000 </r>
       <r>   -4.4369    1.0000 </r>
       <r>   -4.4315    1.0000 </r>
       <r>   -4.4290    1.0000 </r>
       <r>   -4.0247    1.0000 </r>
       <r>   -4.0191    1.0000 </r>
       <r>   -4.0175    1.0000 </r>
       <r>   -4.0146    1.0000 </r>
       <r>   -4.0144    1.0000 </r>
       <r>   -4.0084    1.0000 </r>
       <r>   -3.8283    1.0000 </r>
       <r>   -3.8244    1.0000 </r>
       <r>   -3.8203    1.0000 </r>
       <r>   -3.3334    1.0000 </r>
       <r>   -3.3272    1.0000 </r>
       <r>   -3.3244    1.0000 </r>
       <r>   -2.9628    1.0000 </r>
       <r>   -2.9591    1.0000 </r>
       <r>   -2.9557    1.0000 </r>
       <r>   -2.7985    1.0000 </r>
       <r>   -2.7939    1.0000 </r>
       <r>   -2.7922    1.0000 </r>
       <r>   -2.7893    1.0000 </r>
       <r>   -2.7885    1.0000 </r>
       <r>   -2.7825    1.0000 </r>
       <r>   -1.2573    1.0000 </r>
       <r>   -1.2527    1.0000 </r>
       <r>   -1.2503    1.0000 </r>
       <r>   -1.2472    1.0000 </r>
       <r>   -1.2454    1.0000 </r>
       <r>   -1.2404    1.0000 </r>
       <r>   -1.1545    1.0000 </r>
       <r>   -1.1510    1.0000 </r>
       <r>   -1.1477    1.0000 </r>
       <r>   -1.0376    1.0000 </r>
       <r>   -1.0329    1.0000 </r>
       <r>   -1.0274    1.0000 </r>
       <r>   -0.9535    1.0000 </r>
       <r>   -0.9469    1.0000 </r>
       <r>   -0.9397    1.0000 </r>
       <r>   -0.2446    1.0000 </r>
       <r>   -0.1684    1.0000 </r>
       <r>   -0.1651    1.0000 </r>
       <r>   -0.1616    1.0000 </r>
       <r>   -0.1583    1.0000 </r>
       <r>   -0.1552    1.0000 </r>
       <r>   -0.1521    1.0000 </r>
       <r>    0.7088    1.0000 </r>
       <r>    0.7146    1.0000 </r>
       <r>    0.7194    1.0000 </r>
       <r>    1.0428    1.0000 </r>
       <r>    1.0473    1.0000 </r>
       <r>    1.0512    1.0000 </r>
       <r>    1.6508    1.0000 </r>
       <r>    1.6555    1.0000 </r>
       <r>    1.6566    1.0000 </r>
       <r>    1.6578    1.0000 </r>
       <r>    1.6592    1.0000 </r>
       <r>    1.6613    1.0000 </r>
       <r>    1.7131    1.0000 </r>
       <r>    1.7160    1.0000 </r>
       <r>    1.7196    1.0000 </r>
       <r>    2.2656    1.0000 </r>
       <r>    2.2677    1.0000 </r>
       <r>    2.2699    1.0000 </r>
       <r>    2.3656    1.0000 </r>
       <r>    2.3665    1.0000 </r>
       <r>    2.3696    1.0000 </r>
       <r>    2.3715    1.0000 </r>
       <r>    2.3746    1.0000 </r>
       <r>    2.3766    1.0000 </r>
       <r>    2.4209    1.0000 </r>
       <r>    2.4259    1.0000 </r>
       <r>    2.4288    1.0000 </r>
       <r>    2.7276    1.0000 </r>
       <r>    2.7327    1.0000 </r>
       <r>    2.7353    1.0000 </r>
       <r>    2.7359    1.0000 </r>
       <r>    2.7378    1.0000 </r>
       <r>    2.7403    1.0000 </r>
       <r>    2.9972    1.0000 </r>
       <r>    2.9993    1.0000 </r>
       <r>    3.0007    1.0000 </r>
       <r>    3.0096    1.0000 </r>
       <r>    3.0141    1.0000 </r>
       <r>    3.0174    1.0000 </r>
       <r>    3.3583    1.0000 </r>
       <r>    3.3617    1.0000 </r>
       <r>    3.3656    1.0000 </r>
       <r>    3.3804    1.0000 </r>
       <r>    3.3843    1.0000 </r>
       <r>    3.3885    1.0000 </r>
       <r>    3.4632    1.0000 </r>
       <r>    3.4670    1.0000 </r>
       <r>    3.4697    1.0000 </r>
       <r>    3.7334    1.0000 </r>
       <r>    3.7390    1.0000 </r>
       <r>    3.7407    1.0000 </r>
       <r>    3.7423    1.0000 </r>
       <r>    3.7437    1.0000 </r>
       <r>    3.7484    1.0000 </r>
       <r>    3.7769    1.0000 </r>
       <r>    3.7811    1.0000 </r>
       <r>    3.7845    1.0000 </r>
       <r>    4.0406    1.0000 </r>
       <r>    4.0958    1.0000 </r>
       <r>    4.0981    1.0000 </r>
       <r>    4.1000    1.0000 </r>
       <r>    4.3371    1.0000 </r>
       <r>    4.3411    1.0000 </r>
       <r>    4.3447    1.0000 </r>
       <r>    4.4005    1.0000 </r>
       <r>    4.4057    1.0000 </r>
       <r>    4.4117    1.0000 </r>
       <r>    4.5588    1.0000 </r>
       <r>    4.5670    1.0000 </r>
       <r>    4.8649    1.0000 </r>
       <r>    4.8702    1.0000 </r>
       <r>    4.8751    1.0000 </r>
       <r>    5.3451    1.0000 </r>
       <r>    5.3544    1.0000 </r>
       <r>    6.5603    0.0000 </r>
       <r>    6.5633    0.0000 </r>
       <r>    6.5666    0.0000 </r>
       <r>    7.0001    0.0000 </r>
       <r>    7.0035    0.0000 </r>
       <r>    7.0097    0.0000 </r>
       <r>    7.2337    0.0000 </r>
       <r>    7.4870    0.0000 </r>
       <r>    7.4896    0.0000 </r>
       <r>    7.4955    0.0000 </r>
       <r>    7.6158    0.0000 </r>
       <r>    7.6196    0.0000 </r>
       <r>    7.6233    0.0000 </r>
       <r>    7.7761    0.0000 </r>
       <r>    7.7794    0.0000 </r>
       <r>    7.7833    0.0000 </r>
       <r>    7.7995    0.0000 </r>
       <r>    7.8012    0.0000 </r>
       <r>    7.8035    0.0000 </r>
       <r>    8.0231    0.0000 </r>
       <r>    8.0275    0.0000 </r>
       <r>    8.0299    0.0000 </r>
       <r>    8.0327    0.0000 </r>
       <r>    8.0342    0.0000 </r>
       <r>    8.0356    0.0000 </r>
       <r>    8.0813    0.0000 </r>
       <r>    8.2919    0.0000 </r>
       <r>    8.2945    0.0000 </r>
       <r>    8.2985    0.0000 </r>
       <r>    8.4929    0.0000 </r>
       <r>    8.4996    0.0000 </r>
       <r>    8.5029    0.0000 </r>
       <r>    8.5051    0.0000 </r>
       <r>    8.5106    0.0000 </r>
       <r>    8.5136    0.0000 </r>
       <r>    8.5387    0.0000 </r>
      </set>
     </set>
    </set>
   </array>
  </eigenvalues>
  <separator name="orbital magnetization" >
   <v name="MAGDIPOLOUT">      0.00000000      0.00000000      0.00000000</v>
  </separator>
  <dos>
   <i name="efermi">      5.59945825 </i>
   <total>
    <array>
     <dimension dim="1">gridpoints</dimension>
     <dimension dim="2">spin</dimension>
     <field>energy</field>
     <field>total</field>
     <field>integrated</field>
     <set>
      <set comment="spin 1">
       <r>    -6.7203     0.0000     0.0000 </r>
       <r>    -6.6670     0.0000     0.0000 </r>
       <r>    -6.6137     0.0000     0.0000 </r>
       <r>    -6.5603     0.0000     0.0000 </r>
       <r>    -6.5070     0.0000     0.0000 </r>
       <r>    -6.4537     0.0000     0.0000 </r>
       <r>    -6.4004     0.0000     0.0000 </r>
       <r>    -6.3471     0.0000     0.0000 </r>
       <r>    -6.2938     0.0000     0.0000 </r>
       <r>    -6.2404     0.0000     0.0000 </r>
       <r>    -6.1871     0.0000     0.0000 </r>
       <r>    -6.1338     0.0013     0.0001 </r>
       <r>    -6.0805     0.2524     0.0135 </r>
       <r>    -6.0272     6.0537     0.3363 </r>
       <r>    -5.9738    20.2374     1.4153 </r>
       <r>    -5.9205    10.2174     1.9601 </r>
       <r>    -5.8672     0.7418     1.9996 </r>
       <r>    -5.8139     0.0069     2.0000 </r>
       <r>    -5.7606     0.0000     2.0000 </r>
       <r>    -5.7073     0.0000     2.0000 </r>
       <r>    -5.6539     0.0000     2.0000 </r>
       <r>    -5.6006     0.0072     2.0004 </r>
       <r>    -5.5473     1.1186     2.0600 </r>
       <r>    -5.4940    21.9567     3.2307 </r>
       <r>    -5.4407    61.4902     6.5092 </r>
       <r>    -5.3874    26.3234     7.9127 </r>
       <r>    -5.3340     1.6237     7.9993 </r>
       <r>    -5.2807     0.0128     8.0000 </r>
       <r>    -5.2274     0.0000     8.0000 </r>
       <r>    -5.1741     0.0000     8.0000 </r>
       <r>    -5.1208     0.0007     8.0000 </r>
       <r>    -5.0674     0.2280     8.0122 </r>
       <r>    -5.0141     9.3717     8.5119 </r>
       <r>    -4.9608    52.6114    11.3170 </r>
       <r>    -4.9075    44.5905    13.6945 </r>
       <r>    -4.8542     5.6351    13.9949 </r>
       <r>    -4.8009     0.0951    14.0000 </r>
       <r>    -4.7475     0.0002    14.0000 </r>
       <r>    -4.6942     0.0001    14.0000 </r>
       <r>    -4.6409     0.0397    14.0021 </r>
       <r>    -4.5876     2.1668    14.1176 </r>
       <r>    -4.5343    15.9266    14.9668 </r>
       <r>    -4.4809    26.2829    16.3682 </r>
       <r>    -4.4276    55.3757    19.3207 </r>
       <r>    -4.3743    44.5489    21.6959 </r>
       <r>    -4.3210     5.6082    21.9950 </r>
       <r>    -4.2677     0.0945    22.0000 </r>
       <r>    -4.2144     0.0002    22.0000 </r>
       <r>    -4.1610     0.0057    22.0003 </r>
       <r>    -4.1077     1.1762    22.0630 </r>
       <r>    -4.0544    31.1582    23.7243 </r>
       <r>    -4.0011   117.7169    30.0007 </r>
       <r>    -3.9478    68.9435    33.6766 </r>
       <r>    -3.8945     8.7019    34.1406 </r>
       <r>    -3.8411    33.1071    35.9058 </r>
       <r>    -3.7878    59.6768    39.0876 </r>
       <r>    -3.7345    16.4692    39.9657 </r>
       <r>    -3.6812     0.6393    39.9998 </r>
       <r>    -3.6279     0.0031    40.0000 </r>
       <r>    -3.5745     0.0000    40.0000 </r>
       <r>    -3.5212     0.0000    40.0000 </r>
       <r>    -3.4679     0.0048    40.0003 </r>
       <r>    -3.4146     0.8534    40.0458 </r>
       <r>    -3.3613    19.0763    41.0629 </r>
       <r>    -3.3080    60.7451    44.3017 </r>
       <r>    -3.2546    29.7109    45.8858 </r>
       <r>    -3.2013     2.1224    45.9989 </r>
       <r>    -3.1480     0.0197    46.0000 </r>
       <r>    -3.0947     0.0075    46.0004 </r>
       <r>    -3.0414     1.1479    46.0616 </r>
       <r>    -2.9880    22.2587    47.2484 </r>
       <r>    -2.9347    61.5474    50.5300 </r>
       <r>    -2.8814    27.2314    51.9819 </r>
       <r>    -2.8281    33.6697    53.7771 </r>
       <r>    -2.7748   118.2573    60.0823 </r>
       <r>    -2.7215    67.6318    63.6883 </r>
       <r>    -2.6681     5.7802    63.9965 </r>
       <r>    -2.6148     0.0660    64.0000 </r>
       <r>    -2.5615     0.0001    64.0000 </r>
       <r>    -2.5082     0.0000    64.0000 </r>
       <r>    -2.4549     0.0000    64.0000 </r>
       <r>    -2.4016     0.0000    64.0000 </r>
       <r>    -2.3482     0.0000    64.0000 </r>
       <r>    -2.2949     0.0000    64.0000 </r>
       <r>    -2.2416     0.0000    64.0000 </r>
       <r>    -2.1883     0.0000    64.0000 </r>
       <r>    -2.1350     0.0000    64.0000 </r>
       <r>    -2.0816     0.0000    64.0000 </r>
       <r>    -2.0283     0.0000    64.0000 </r>
       <r>    -1.9750     0.0000    64.0000 </r>
       <r>    -1.9217     0.0000    64.0000 </r>
       <r>    -1.8684     0.0000    64.0000 </r>
       <r>    -1.8151     0.0000    64.0000 </r>
       <r>    -1.7617     0.0000    64.0000 </r>
       <r>    -1.7084     0.0000    64.0000 </r>
       <r>    -1.6551     0.0000    64.0000 </r>
       <r>    -1.6018     0.0000    64.0000 </r>
       <r>    -1.5485     0.0000    64.0000 </r>
       <r>    -1.4951     0.0000    64.0000 </r>
       <r>    -1.4418     0.0000    64.0000 </r>
       <r>    -1.3885     0.0104    64.0006 </r>
       <r>    -1.3352     1.7566    64.0942 </r>
       <r>    -1.2819    38.3149    66.1371 </r>
       <r>    -1.2286   122.5993    72.6738 </r>
       <r>    -1.1752    85.8183    77.2495 </r>
       <r>    -1.1219    66.5542    80.7980 </r>
       <r>    -1.0686    38.9924    82.8770 </r>
       <r>    -1.0153    64.0240    86.2906 </r>
       <r>    -0.9620    67.1420    89.8705 </r>
       <r>    -0.9087    61.1586    93.1313 </r>
       <r>    -0.8553    15.6775    93.9672 </r>
       <r>    -0.8020     0.6120    93.9998 </r>
       <r>    -0.7487     0.0031    94.0000 </r>
       <r>    -0.6954     0.0000    94.0000 </r>
       <r>    -0.6421     0.0000    94.0000 </r>
       <r>    -0.5887     0.0000    94.0000 </r>
       <r>    -0.5354     0.0000    94.0000 </r>
       <r>    -0.4821     0.0000    94.0000 </r>
       <r>    -0.4288     0.0000    94.0000 </r>
       <r>    -0.3755     0.0042    94.0002 </r>
       <r>    -0.3222     0.5335    94.0287 </r>
       <r>    -0.2688     8.9870    94.5078 </r>
       <r>    -0.2155    33.8552    96.3129 </r>
       <r>    -0.1622   101.0304   101.6996 </r>
       <r>    -0.1089   101.1009   107.0901 </r>
       <r>    -0.0556    16.6791   107.9794 </r>
       <r>    -0.0022     0.3848   107.9999 </r>
       <r>     0.0511     0.0011   108.0000 </r>
       <r>     0.1044     0.0000   108.0000 </r>
       <r>     0.1577     0.0000   108.0000 </r>
       <r>     0.2110     0.0000   108.0000 </r>
       <r>     0.2643     0.0000   108.0000 </r>
       <r>     0.3177     0.0000   108.0000 </r>
       <r>     0.3710     0.0000   108.0000 </r>
       <r>     0.4243     0.0000   108.0000 </r>
       <r>     0.4776     0.0000   108.0000 </r>
       <r>     0.5309     0.0000   108.0000 </r>
       <r>     0.5842     0.0147   108.0008 </r>
       <r>     0.6376     1.7491   108.0940 </r>
       <r>     0.6909    27.0283   109.5351 </r>
       <r>     0.7442    61.1675   112.7965 </r>
       <r>     0.7975    21.4723   113.9413 </r>
       <r>     0.8508     1.0935   113.9996 </r>
       <r>     0.9042     0.0104   114.0002 </r>
       <r>     0.9575     0.6460   114.0346 </r>
       <r>     1.0108    16.5861   114.9189 </r>
       <r>     1.0641    59.7805   118.1063 </r>
       <r>     1.1174    32.8518   119.8579 </r>
       <r>     1.1707     2.6376   119.9985 </r>
       <r>     1.2241     0.0275   120.0000 </r>
       <r>     1.2774     0.0000   120.0000 </r>
       <r>     1.3307     0.0000   120.0000 </r>
       <r>     1.3840     0.0000   120.0000 </r>
       <r>     1.4373     0.0000   120.0000 </r>
       <r>     1.4907     0.0003   120.0000 </r>
       <r>     1.5440     0.1641   120.0088 </r>
       <r>     1.5973    10.3447   120.5603 </r>
       <r>     1.6506    89.8182   125.3492 </r>
       <r>     1.7039   144.9614   133.0783 </r>
       <r>     1.7572    77.8992   137.2317 </r>
       <r>     1.8106    13.9721   137.9767 </r>
       <r>     1.8639     0.4362   137.9999 </r>
       <r>     1.9172     0.0017   138.0000 </r>
       <r>     1.9705     0.0000   138.0000 </r>
       <r>     2.0238     0.0000   138.0000 </r>
       <r>     2.0771     0.0000   138.0000 </r>
       <r>     2.1305     0.0060   138.0003 </r>
       <r>     2.1838     0.9948   138.0534 </r>
       <r>     2.2371    20.8164   139.1632 </r>
       <r>     2.2904    64.0778   142.5797 </r>
       <r>     2.3437    76.4002   146.6532 </r>
       <r>     2.3971   147.6660   154.5265 </r>
       <r>     2.4504   110.4674   160.4164 </r>
       <r>     2.5037    28.1636   161.9180 </r>
       <r>     2.5570     1.5270   161.9994 </r>
       <r>     2.6103     0.0626   162.0027 </r>
       <r>     2.6636     4.9964   162.2691 </r>
       <r>     2.7170    63.9288   165.6777 </r>
       <r>     2.7703   120.0775   172.0799 </r>
       <r>     2.8236    34.5940   173.9244 </r>
       <r>     2.8769     1.4480   174.0016 </r>
       <r>     2.9302     3.9273   174.2110 </r>
       <r>     2.9836    55.4858   177.1694 </r>
       <r>     3.0369   120.6975   183.6047 </r>
       <r>     3.0902    42.6201   185.8772 </r>
       <r>     3.1435     2.2875   185.9991 </r>
       <r>     3.1968     0.0168   186.0000 </r>
       <r>     3.2501     0.1012   186.0054 </r>
       <r>     3.3035     6.7914   186.3675 </r>
       <r>     3.3568    67.5936   189.9715 </r>
       <r>     3.4101   120.5301   196.3979 </r>
       <r>     3.4634    80.5534   200.6928 </r>
       <r>     3.5167    53.1596   203.5272 </r>
       <r>     3.5700     8.6703   203.9894 </r>
       <r>     3.6234     0.3057   204.0057 </r>
       <r>     3.6767     8.0092   204.4328 </r>
       <r>     3.7300    85.1866   208.9747 </r>
       <r>     3.7833   164.4177   217.7411 </r>
       <r>     3.8366    72.5329   221.6084 </r>
       <r>     3.8900     7.2232   221.9936 </r>
       <r>     3.9433     0.2355   222.0061 </r>
       <r>     3.9966     4.1586   222.2278 </r>
       <r>     4.0499    28.2380   223.7334 </r>
       <r>     4.1032    66.4478   227.2763 </r>
       <r>     4.1565    45.5261   229.7036 </r>
       <r>     4.2099     5.4810   229.9959 </r>
       <r>     4.2632     1.6748   230.0852 </r>
       <r>     4.3165    26.6722   231.5073 </r>
       <r>     4.3698    78.4243   235.6887 </r>
       <r>     4.4231    81.7670   240.0483 </r>
       <r>     4.4765    34.4168   241.8834 </r>
       <r>     4.5298    15.3213   242.7003 </r>
       <r>     4.5831    40.5076   244.8600 </r>
       <r>     4.6364    19.9345   245.9229 </r>
       <r>     4.6897     1.4326   245.9993 </r>
       <r>     4.7430     0.0335   246.0011 </r>
       <r>     4.7964     2.1378   246.1151 </r>
       <r>     4.8497    29.7235   247.6998 </r>
       <r>     4.9030    60.6651   250.9344 </r>
       <r>     4.9563    19.1173   251.9537 </r>
       <r>     5.0096     0.8639   251.9997 </r>
       <r>     5.0629     0.0050   252.0000 </r>
       <r>     5.1163     0.0000   252.0000 </r>
       <r>     5.1696     0.0000   252.0000 </r>
       <r>     5.2229     0.0137   252.0007 </r>
       <r>     5.2762     1.4459   252.0778 </r>
       <r>     5.3295    19.9437   253.1412 </r>
       <r>     5.3829    40.4129   255.2959 </r>
       <r>     5.4362    12.6370   255.9697 </r>
       <r>     5.4895     0.5654   255.9998 </r>
       <r>     5.5428     0.0032   256.0000 </r>
       <r>     5.5961     0.0000   256.0000 </r>
       <r>     5.6494     0.0000   256.0000 </r>
       <r>     5.7028     0.0000   256.0000 </r>
       <r>     5.7561     0.0000   256.0000 </r>
       <r>     5.8094     0.0000   256.0000 </r>
       <r>     5.8627     0.0000   256.0000 </r>
       <r>     5.9160     0.0000   256.0000 </r>
       <r>     5.9694     0.0000   256.0000 </r>
       <r>     6.0227     0.0000   256.0000 </r>
       <r>     6.0760     0.0000   256.0000 </r>
       <r>     6.1293     0.0000   256.0000 </r>
       <r>     6.1826     0.0000   256.0000 </r>
       <r>     6.2359     0.0000   256.0000 </r>
       <r>     6.2893     0.0000   256.0000 </r>
       <r>     6.3426     0.0000   256.0000 </r>
       <r>     6.3959     0.0001   256.0000 </r>
       <r>     6.4492     0.0722   256.0039 </r>
       <r>     6.5025     4.7765   256.2585 </r>
       <r>     6.5558    41.9439   258.4949 </r>
       <r>     6.6092    54.6662   261.4096 </r>
       <r>     6.6625    10.7809   261.9844 </r>
       <r>     6.7158     0.2919   261.9999 </r>
       <r>     6.7691     0.0010   262.0000 </r>
       <r>     6.8224     0.0000   262.0000 </r>
       <r>     6.8758     0.0166   262.0009 </r>
       <r>     6.9291     1.8982   262.1021 </r>
       <r>     6.9824    28.2076   263.6061 </r>
       <r>     7.0357    61.0834   266.8629 </r>
       <r>     7.0890    20.3510   267.9480 </r>
       <r>     7.1423     1.1533   268.0095 </r>
       <r>     7.1957     5.1087   268.2818 </r>
       <r>     7.2490    19.7285   269.3337 </r>
       <r>     7.3023    11.5109   269.9475 </r>
       <r>     7.3556     0.9827   269.9999 </r>
       <r>     7.4089     1.2024   270.0640 </r>
       <r>     7.4623    22.6026   271.2691 </r>
       <r>     7.5156    61.6798   274.5577 </r>
       <r>     7.5689    34.1198   276.3769 </r>
       <r>     7.6222    52.5454   279.1785 </r>
       <r>     7.6755    46.6718   281.6670 </r>
       <r>     7.7288    16.9569   282.5711 </r>
       <r>     7.7822    81.7937   286.9321 </r>
       <r>     7.8355   107.1944   292.6475 </r>
       <r>     7.8888    24.4933   293.9534 </r>
       <r>     7.9421     2.3401   294.0782 </r>
       <r>     7.9954    35.3704   295.9641 </r>
       <r>     8.0487   126.4730   302.7074 </r>
       <r>     8.1021    83.7623   307.1734 </r>
       <r>     8.1554    14.7688   307.9608 </r>
       <r>     8.2087     1.5677   308.0444 </r>
       <r>     8.2620    18.9927   309.0571 </r>
       <r>     8.3153    60.8749   312.3028 </r>
       <r>     8.3687    29.7322   313.8880 </r>
       <r>     8.4220     4.5847   314.1325 </r>
       <r>     8.4753    45.6862   316.5684 </r>
       <r>     8.5286   133.2757   323.6743 </r>
       <r>     8.5819    72.6440   327.5476 </r>
       <r>     8.6352     8.2927   327.9897 </r>
       <r>     8.6886     0.1922   328.0000 </r>
       <r>     8.7419     0.0007   328.0000 </r>
       <r>     8.7952     0.0000   328.0000 </r>
       <r>     8.8485     0.0000   328.0000 </r>
       <r>     8.9018     0.0000   328.0000 </r>
       <r>     8.9552     0.0000   328.0000 </r>
       <r>     9.0085     0.0000   328.0000 </r>
       <r>     9.0618     0.0000   328.0000 </r>
       <r>     9.1151     0.0000   328.0000 </r>
       <r>     9.1684     0.0000   328.0000 </r>
       <r>     9.2217     0.0000   328.0000 </r>
       <r>     9.2751     0.0000   328.0000 </r>
      </set>
     </set>
    </array>
   </total>
  </dos>
 </calculation>
 <structure name="finalpos" >
  <crystal>
   <varray name="basis" >
    <v>      10.93252578       0.00000000       0.00000000 </v>
    <v>       0.00000000      10.93252578       0.00000000 </v>
    <v>       0.00000000       0.00000000      10.93252578 </v>
   </varray>
   <i name="volume">   1306.65679237 </i>
   <varray name="rec_basis" >
    <v>       0.09147017       0.00000000       0.00000000 </v>
    <v>       0.00000000       0.09147017       0.00000000 </v>
    <v>       0.00000000       0.00000000       0.09147017 </v>
   </varray>
  </crystal>
  <varray name="positions" >
   <v>       0.44024411       0.43750000       0.43750000 </v>
   <v>       0.93750000       0.43750000       0.43750000 </v>
   <v>       0.43750000       0.93750000       0.43750000 </v>
   <v>       0.93750000       0.93750000       0.43750000 </v>
   <v>       0.43750000       0.43750000       0.93750000 </v>
   <v>       0.93750000       0.43750000       0.93750000 </v>
   <v>       0.43750000       0.93750000       0.93750000 </v>
   <v>       0.93750000       0.93750000       0.93750000 </v>
   <v>       0.43750000       0.18750000       0.18750000 </v>
   <v>       0.93750000       0.18750000       0.18750000 </v>
   <v>       0.43750000       0.68750000       0.18750000 </v>
   <v>       0.93750000       0.68750000       0.18750000 </v>
   <v>       0.43750000       0.18750000       0.68750000 </v>
   <v>       0.93750000       0.18750000       0.68750000 </v>
   <v>       0.43750000       0.68750000       0.68750000 </v>
   <v>       0.93750000       0.68750000       0.68750000 </v>
   <v>       0.18750000       0.43750000       0.18750000 </v>
   <v>       0.68750000       0.43750000       0.18750000 </v>
   <v>       0.18750000       0.93750000       0.18750000 </v>
   <v>       0.68750000       0.93750000       0.18750000 </v>
   <v>       0.18750000       0.43750000       0.68750000 </v>
   <v>       0.68750000       0.43750000       0.68750000 </v>
   <v>       0.18750000       0.93750000       0.68750000 </v>
   <v>       0.68750000       0.93750000       0.68750000 </v>
   <v>       0.18750000       0.18750000       0.43750000 </v>
   <v>       0.68750000       0.18750000       0.43750000 </v>
   <v>       0.18750000       0.68750000       0.43750000 </v>
   <v>       0.68750000       0.68750000       0.43750000 </v>
   <v>       0.18750000       0.18750000       0.93750000 </v>
   <v>       0.68750000       0.18750000       0.93750000 </v>
   <v>       0.18750000       0.68750000       0.93750000 </v>
   <v>       0.68750000       0.68750000       0.93750000 </v>
   <v>       0.06250000       0.06250000       0.06250000 </v>
   <v>       0.56250000       0.06250000       0.06250000 </v>
   <v>       0.06250000       0.56524411       0.06250000 </v>
   <v>       0.56250000       0.56250000       0.06250000 </v>
   <v>       0.06250000       0.06250000       0.56250000 </v>
   <v>       0.56250000       0.06250000       0.56250000 </v>
   <v>       0.06250000       0.56250000       0.56250000 </v>
   <v>       0.56250000       0.56250000       0.56250000 </v>
   <v>       0.06250000       0.31250000       0.31250000 </v>
   <v>       0.56250000       0.31250000       0.31250000 </v>
   <v>       0.06250000       0.81250000       0.31250000 </v>
   <v>       0.56250000       0.81250000       0.31250000 </v>
   <v>       0.06250000       0.31250000       0.81250000 </v>
   <v>       0.56250000       0.31250000       0.81250000 </v>
   <v>       0.06250000       0.81250000       0.81250000 </v>
   <v>       0.56250000       0.81250000       0.81250000 </v>
   <v>       0.31250000       0.06250000       0.31250000 </v>
   <v>       0.81250000       0.06250000       0.31250000 </v>
   <v>       0.31250000       0.56250000       0.31250000 </v>
   <v>       0.81250000       0.56250000       0.31250000 </v>
   <v>       0.31250000       0.06250000       0.81250000 </v>
   <v>       0.81250000       0.06250000       0.81250000 </v>
   <v>       0.31250000       0.56250000       0.81250000 </v>
   <v>       0.81250000       0.56250000       0.81250000 </v>
   <v>       0.31250000       0.31250000       0.06250000 </v>
   <v>       0.81250000       0.31250000       0.06250000 </v>
   <v>       0.31250000       0.81250000       0.06250000 </v>
   <v>       0.81250000       0.81250000       0.06250000 </v>
   <v>       0.31250000       0.31250000       0.56250000 </v>
   <v>       0.81250000       0.31250000       0.56250000 </v>
   <v>       0.31250000       0.81250000       0.56250000 </v>
   <v>       0.81250000       0.81250000       0.56250000 </v>
  </varray>
 </structure>
</modeling>
