
     Program PWSCF v.5.3.0 (svn rev. 11974) starts on  3Feb2016 at 13:49:35 

     This program is part of the open-source Quantum ESPRESSO suite
     for quantum simulation of materials; please cite
         "P. Giannozzi et al., J. Phys.:Condens. Matter 21 395502 (2009);
          URL http://www.quantum-espresso.org", 
     in publications or presentations arising from this work. More details at
     http://www.quantum-espresso.org/quote

     Parallel version (MPI), running on    16 processors
     R & G space division:  proc/nbgrp/npool/nimage =      16
     Reading input from Si.in

     Current dimensions of program PWSCF are:
     Max number of different atomic species (ntypx) = 10
     Max number of k-points (npk) =  40000
     Max angular momentum in pseudopotentials (lmaxx) =  3
               file Si.pbe-n-kjpaw_psl.0.1.UPF: wavefunction(s)  3S renormalized

     Subspace diagonalization in iterative solution of the eigenvalue problem:
     one sub-group per k-point group (pool) will be used
     scalapack distributed-memory algorithm (size of sub-group:  2*  2 procs)

 
     Parallelization info
     --------------------
     sticks:   dense  smooth     PW     G-vecs:    dense   smooth      PW
     Min         424     424    109                26332    26332    3467
     Max         425     425    110                26336    26336    3472
     Sum        6785    6785   1757               421349   421349   55515
 


     bravais-lattice index     =            0
     lattice parameter (alat)  =      20.6591  a.u.
     unit-cell volume          =    8817.2783 (a.u.)^3
     number of atoms/cell      =           64
     number of atomic types    =            1
     number of electrons       =       256.00
     number of Kohn-Sham states=          154
     kinetic-energy cutoff     =      50.0000  Ry
     charge density cutoff     =     200.0000  Ry
     convergence threshold     =      1.0E-09
     mixing beta               =       0.7000
     number of iterations used =            8  plain     mixing
     Exchange-correlation      =  SLA  PW   PBX  PBC ( 1  4  3  4 0 0)

     celldm(1)=  20.659106  celldm(2)=   0.000000  celldm(3)=   0.000000
     celldm(4)=   0.000000  celldm(5)=   0.000000  celldm(6)=   0.000000

     crystal axes: (cart. coord. in units of alat)
               a(1) = (   1.000000   0.000000   0.000000 )  
               a(2) = (   0.000000   1.000000   0.000000 )  
               a(3) = (   0.000000   0.000000   1.000000 )  

     reciprocal axes: (cart. coord. in units 2 pi/alat)
               b(1) = (  1.000000  0.000000  0.000000 )  
               b(2) = (  0.000000  1.000000  0.000000 )  
               b(3) = (  0.000000  0.000000  1.000000 )  


     PseudoPot. # 1 for Si read from file:
     /home/togo/espresso/pseudo/Si.pbe-n-kjpaw_psl.0.1.UPF
     MD5 check sum: b9d333a40e496bef61db012f150758bf
     Pseudo is Projector augmented-wave + core cor, Zval =  4.0
     Generated using "atomic" code by A. Dal Corso  v.5.0.2 svn rev. 9415
     Shape of augmentation charge: PSQ
     Using radial grid of 1141 points,  4 beta functions with: 
                l(1) =   0
                l(2) =   0
                l(3) =   1
                l(4) =   1
     Q(r) pseudized with 0 coefficients 


     atomic species   valence    mass     pseudopotential
        Si             4.00    28.08550     Si( 1.00)

      2 Sym. Ops. (no inversion) found ( 1 have fractional translation)



   Cartesian axes

     site n.     atom                  positions (alat units)
         1           Si  tau(   1) = (   0.4404043   0.4375000   0.4375000  )
         2           Si  tau(   2) = (   0.9375000   0.4375000   0.4375000  )
         3           Si  tau(   3) = (   0.4375000   0.9375000   0.4375000  )
         4           Si  tau(   4) = (   0.9375000   0.9375000   0.4375000  )
         5           Si  tau(   5) = (   0.4375000   0.4375000   0.9375000  )
         6           Si  tau(   6) = (   0.9375000   0.4375000   0.9375000  )
         7           Si  tau(   7) = (   0.4375000   0.9375000   0.9375000  )
         8           Si  tau(   8) = (   0.9375000   0.9375000   0.9375000  )
         9           Si  tau(   9) = (   0.4375000   0.1875000   0.1875000  )
        10           Si  tau(  10) = (   0.9375000   0.1875000   0.1875000  )
        11           Si  tau(  11) = (   0.4375000   0.6875000   0.1875000  )
        12           Si  tau(  12) = (   0.9375000   0.6875000   0.1875000  )
        13           Si  tau(  13) = (   0.4375000   0.1875000   0.6875000  )
        14           Si  tau(  14) = (   0.9375000   0.1875000   0.6875000  )
        15           Si  tau(  15) = (   0.4375000   0.6875000   0.6875000  )
        16           Si  tau(  16) = (   0.9375000   0.6875000   0.6875000  )
        17           Si  tau(  17) = (   0.1875000   0.4375000   0.1875000  )
        18           Si  tau(  18) = (   0.6875000   0.4375000   0.1875000  )
        19           Si  tau(  19) = (   0.1875000   0.9375000   0.1875000  )
        20           Si  tau(  20) = (   0.6875000   0.9375000   0.1875000  )
        21           Si  tau(  21) = (   0.1875000   0.4375000   0.6875000  )
        22           Si  tau(  22) = (   0.6875000   0.4375000   0.6875000  )
        23           Si  tau(  23) = (   0.1875000   0.9375000   0.6875000  )
        24           Si  tau(  24) = (   0.6875000   0.9375000   0.6875000  )
        25           Si  tau(  25) = (   0.1875000   0.1875000   0.4375000  )
        26           Si  tau(  26) = (   0.6875000   0.1875000   0.4375000  )
        27           Si  tau(  27) = (   0.1875000   0.6875000   0.4375000  )
        28           Si  tau(  28) = (   0.6875000   0.6875000   0.4375000  )
        29           Si  tau(  29) = (   0.1875000   0.1875000   0.9375000  )
        30           Si  tau(  30) = (   0.6875000   0.1875000   0.9375000  )
        31           Si  tau(  31) = (   0.1875000   0.6875000   0.9375000  )
        32           Si  tau(  32) = (   0.6875000   0.6875000   0.9375000  )
        33           Si  tau(  33) = (   0.0625000   0.0625000   0.0625000  )
        34           Si  tau(  34) = (   0.5625000   0.0625000   0.0625000  )
        35           Si  tau(  35) = (   0.0625000   0.5625000   0.0625000  )
        36           Si  tau(  36) = (   0.5625000   0.5625000   0.0625000  )
        37           Si  tau(  37) = (   0.0625000   0.0625000   0.5625000  )
        38           Si  tau(  38) = (   0.5625000   0.0625000   0.5625000  )
        39           Si  tau(  39) = (   0.0625000   0.5625000   0.5625000  )
        40           Si  tau(  40) = (   0.5625000   0.5625000   0.5625000  )
        41           Si  tau(  41) = (   0.0625000   0.3125000   0.3125000  )
        42           Si  tau(  42) = (   0.5625000   0.3125000   0.3125000  )
        43           Si  tau(  43) = (   0.0625000   0.8125000   0.3125000  )
        44           Si  tau(  44) = (   0.5625000   0.8125000   0.3125000  )
        45           Si  tau(  45) = (   0.0625000   0.3125000   0.8125000  )
        46           Si  tau(  46) = (   0.5625000   0.3125000   0.8125000  )
        47           Si  tau(  47) = (   0.0625000   0.8125000   0.8125000  )
        48           Si  tau(  48) = (   0.5625000   0.8125000   0.8125000  )
        49           Si  tau(  49) = (   0.3125000   0.0625000   0.3125000  )
        50           Si  tau(  50) = (   0.8125000   0.0625000   0.3125000  )
        51           Si  tau(  51) = (   0.3125000   0.5654043   0.3125000  )
        52           Si  tau(  52) = (   0.8125000   0.5625000   0.3125000  )
        53           Si  tau(  53) = (   0.3125000   0.0625000   0.8125000  )
        54           Si  tau(  54) = (   0.8125000   0.0625000   0.8125000  )
        55           Si  tau(  55) = (   0.3125000   0.5625000   0.8125000  )
        56           Si  tau(  56) = (   0.8125000   0.5625000   0.8125000  )
        57           Si  tau(  57) = (   0.3125000   0.3125000   0.0625000  )
        58           Si  tau(  58) = (   0.8125000   0.3125000   0.0625000  )
        59           Si  tau(  59) = (   0.3125000   0.8125000   0.0625000  )
        60           Si  tau(  60) = (   0.8125000   0.8125000   0.0625000  )
        61           Si  tau(  61) = (   0.3125000   0.3125000   0.5625000  )
        62           Si  tau(  62) = (   0.8125000   0.3125000   0.5625000  )
        63           Si  tau(  63) = (   0.3125000   0.8125000   0.5625000  )
        64           Si  tau(  64) = (   0.8125000   0.8125000   0.5625000  )

     number of k points=     3  gaussian smearing, width (Ry)=  0.0100
                       cart. coord. in units 2pi/alat
        k(    1) = (   0.2500000   0.2500000   0.2500000), wk =   1.0000000
        k(    2) = (  -0.2500000   0.2500000  -0.2500000), wk =   0.5000000
        k(    3) = (   0.2500000  -0.2500000  -0.2500000), wk =   0.5000000

     Dense  grid:   421349 G-vectors     FFT dimensions: (  96,  96,  96)

     Largest allocated arrays     est. size (Mb)     dimensions
        Kohn-Sham Wavefunctions         7.72 Mb     (    3285,  154)
        NL pseudopotentials            25.66 Mb     (    3285,  512)
        Each V/rho on FFT grid          0.84 Mb     (   55296)
        Each G-vector array             0.20 Mb     (   26336)
        G-vector shells                 0.01 Mb     (    1719)
     Largest temporary arrays     est. size (Mb)     dimensions
        Auxiliary wavefunctions        30.88 Mb     (    3285,  616)
        Each subspace H/S matrix        1.45 Mb     (     308,  308)
        Each <psi_i|beta_j> matrix      1.20 Mb     (     512,  154)
        Arrays for rho mixing           6.75 Mb     (   55296,    8)

     Check: negative/imaginary core charge=   -0.000001    0.000000

     Initial potential from superposition of free atoms

     starting charge  255.96421, renormalised to  256.00000
     Starting wfc are  256 randomized atomic wfcs
     Checking if some PAW data can be deallocated... 

     total cpu time spent up to now is        7.6 secs

     per-process dynamical memory:   115.9 Mb

     Self-consistent Calculation

     iteration #  1     ecut=    50.00 Ry     beta=0.70
     Davidson diagonalization with overlap
     ethr =  1.00E-02,  avg # of iterations =  3.0

     Threshold (ethr) on eigenvalues was too large:
     Diagonalizing with lowered threshold

     Davidson diagonalization with overlap
     ethr =  7.00E-04,  avg # of iterations =  1.0

     total cpu time spent up to now is       39.2 secs

     total energy              =   -2990.45674363 Ry
     Harris-Foulkes estimate   =   -2990.87629139 Ry
     estimated scf accuracy    <       1.77374882 Ry

     iteration #  2     ecut=    50.00 Ry     beta=0.70
     Davidson diagonalization with overlap
     ethr =  6.93E-04,  avg # of iterations =  1.0

     total cpu time spent up to now is       50.2 secs

     total energy              =   -2990.52348071 Ry
     Harris-Foulkes estimate   =   -2990.52730495 Ry
     estimated scf accuracy    <       0.07624610 Ry

     iteration #  3     ecut=    50.00 Ry     beta=0.70
     Davidson diagonalization with overlap
     ethr =  2.98E-05,  avg # of iterations = 12.0

     total cpu time spent up to now is       73.5 secs

     total energy              =   -2990.53056722 Ry
     Harris-Foulkes estimate   =   -2990.53119497 Ry
     estimated scf accuracy    <       0.00179437 Ry

     iteration #  4     ecut=    50.00 Ry     beta=0.70
     Davidson diagonalization with overlap
     ethr =  7.01E-07,  avg # of iterations =  4.7

     total cpu time spent up to now is       95.6 secs

     total energy              =   -2990.53079211 Ry
     Harris-Foulkes estimate   =   -2990.53203031 Ry
     estimated scf accuracy    <       0.00343531 Ry

     iteration #  5     ecut=    50.00 Ry     beta=0.70
     Davidson diagonalization with overlap
     ethr =  7.01E-07,  avg # of iterations =  3.0

     total cpu time spent up to now is      110.0 secs

     total energy              =   -2990.53136019 Ry
     Harris-Foulkes estimate   =   -2990.53143272 Ry
     estimated scf accuracy    <       0.00019001 Ry

     iteration #  6     ecut=    50.00 Ry     beta=0.70
     Davidson diagonalization with overlap
     ethr =  7.42E-08,  avg # of iterations =  3.0

     total cpu time spent up to now is      123.4 secs

     total energy              =   -2990.53139707 Ry
     Harris-Foulkes estimate   =   -2990.53142140 Ry
     estimated scf accuracy    <       0.00007799 Ry

     iteration #  7     ecut=    50.00 Ry     beta=0.70
     Davidson diagonalization with overlap
     ethr =  3.05E-08,  avg # of iterations =  2.0

     total cpu time spent up to now is      136.1 secs

     total energy              =   -2990.53140888 Ry
     Harris-Foulkes estimate   =   -2990.53141035 Ry
     estimated scf accuracy    <       0.00000342 Ry

     iteration #  8     ecut=    50.00 Ry     beta=0.70
     Davidson diagonalization with overlap
     ethr =  1.34E-09,  avg # of iterations =  3.0

     total cpu time spent up to now is      155.0 secs

     total energy              =   -2990.53141005 Ry
     Harris-Foulkes estimate   =   -2990.53141024 Ry
     estimated scf accuracy    <       0.00000040 Ry

     iteration #  9     ecut=    50.00 Ry     beta=0.70
     Davidson diagonalization with overlap
     ethr =  1.55E-10,  avg # of iterations =  2.7

     total cpu time spent up to now is      171.9 secs

     total energy              =   -2990.53141006 Ry
     Harris-Foulkes estimate   =   -2990.53141015 Ry
     estimated scf accuracy    <       0.00000014 Ry

     iteration # 10     ecut=    50.00 Ry     beta=0.70
     Davidson diagonalization with overlap
     ethr =  5.48E-11,  avg # of iterations =  3.0

     total cpu time spent up to now is      184.8 secs

     total energy              =   -2990.53141004 Ry
     Harris-Foulkes estimate   =   -2990.53141009 Ry
     estimated scf accuracy    <       0.00000006 Ry

     iteration # 11     ecut=    50.00 Ry     beta=0.70
     Davidson diagonalization with overlap
     ethr =  2.28E-11,  avg # of iterations =  2.0

     total cpu time spent up to now is      198.1 secs

     total energy              =   -2990.53141005 Ry
     Harris-Foulkes estimate   =   -2990.53141005 Ry
     estimated scf accuracy    <          2.0E-09 Ry

     iteration # 12     ecut=    50.00 Ry     beta=0.70
     Davidson diagonalization with overlap
     ethr =  7.64E-13,  avg # of iterations =  3.0

     total cpu time spent up to now is      216.0 secs

     total energy              =   -2990.53141005 Ry
     Harris-Foulkes estimate   =   -2990.53141005 Ry
     estimated scf accuracy    <          1.9E-09 Ry

     iteration # 13     ecut=    50.00 Ry     beta=0.70
     Davidson diagonalization with overlap
     ethr =  7.31E-13,  avg # of iterations =  2.0

     total cpu time spent up to now is      228.8 secs

     End of self-consistent calculation

          k = 0.2500 0.2500 0.2500 ( 52563 PWs)   bands (ev):

    -5.6251  -5.0989  -5.0970  -5.0932  -4.5992  -4.5974  -4.5937  -4.1632
    -4.0660  -4.0642  -4.0600  -3.6559  -3.6495  -3.6472  -3.6470  -3.6454
    -3.6377  -3.4593  -3.4548  -3.4503  -2.9614  -2.9602  -2.9543  -2.5945
    -2.5892  -2.5843  -2.4293  -2.4239  -2.4210  -2.4205  -2.4189  -2.4111
    -0.8884  -0.8819  -0.8783  -0.8780  -0.8757  -0.8683  -0.7856  -0.7805
    -0.7750  -0.6678  -0.6624  -0.6561  -0.5807  -0.5771  -0.5703   0.1262
     0.2015   0.2064   0.2099   0.2106   0.2139   0.2223   1.0806   1.0847
     1.0907   1.4142   1.4181   1.4227   2.0246   2.0271   2.0280   2.0292
     2.0319   2.0337   2.0854   2.0878   2.0917   2.6371   2.6402   2.6429
     2.7382   2.7395   2.7415   2.7437   2.7463   2.7490   2.7919   2.7966
     2.8014   3.1025   3.1050   3.1068   3.1071   3.1093   3.1146   3.3695
     3.3713   3.3738   3.3822   3.3865   3.3904   3.7317   3.7349   3.7370
     3.7520   3.7561   3.7615   3.8365   3.8389   3.8433   4.1073   4.1121
     4.1131   4.1142   4.1155   4.1227   4.1502   4.1529   4.1584   4.4129
     4.4676   4.4708   4.4747   4.7108   4.7139   4.7185   4.7748   4.7783
     4.7838   4.9319   4.9407   5.2387   5.2428   5.2493   5.7191   5.7289
     6.9330   6.9356   6.9400   7.3711   7.3766   7.3824   7.5987   7.8567
     7.8619   7.8668   7.9872   7.9918   7.9960   8.1472   8.1518   8.1546
     8.1662   8.1678   8.1738   8.3958   8.3998   8.4019   8.4020   8.4048
     8.4096   8.4485

          k =-0.2500 0.2500-0.2500 ( 52563 PWs)   bands (ev):

    -5.6251  -5.0997  -5.0973  -5.0918  -4.6002  -4.5977  -4.5925  -4.1643
    -4.0675  -4.0644  -4.0593  -3.6532  -3.6499  -3.6482  -3.6479  -3.6461
    -3.6345  -3.4577  -3.4554  -3.4493  -2.9656  -2.9598  -2.9561  -2.5926
    -2.5909  -2.5834  -2.4260  -2.4239  -2.4224  -2.4219  -2.4196  -2.4091
    -0.8851  -0.8811  -0.8806  -0.8790  -0.8758  -0.8715  -0.7856  -0.7830
    -0.7753  -0.6683  -0.6632  -0.6602  -0.5778  -0.5764  -0.5609   0.1300
     0.2011   0.2064   0.2080   0.2099   0.2121   0.2181   1.0828   1.0852
     1.0953   1.4151   1.4178   1.4219   2.0246   2.0264   2.0290   2.0295
     2.0316   2.0329   2.0839   2.0871   2.0903   2.6399   2.6407   2.6454
     2.7355   2.7371   2.7420   2.7434   2.7461   2.7468   2.7920   2.7931
     2.7979   3.1025   3.1058   3.1070   3.1081   3.1082   3.1148   3.3684
     3.3709   3.3716   3.3820   3.3853   3.3881   3.7338   3.7351   3.7398
     3.7562   3.7570   3.7663   3.8358   3.8391   3.8402   4.1120   4.1130
     4.1134   4.1168   4.1169   4.1293   4.1497   4.1530   4.1547   4.4173
     4.4659   4.4696   4.4703   4.7094   4.7140   4.7142   4.7789   4.7796
     4.7930   4.9324   4.9376   5.2367   5.2427   5.2429   5.7188   5.7244
     6.9324   6.9335   6.9378   7.3721   7.3765   7.3793   7.5972   7.8566
     7.8608   7.8632   7.9882   7.9945   7.9963   8.1461   8.1528   8.1530
     8.1661   8.1693   8.1704   8.3969   8.4016   8.4022   8.4025   8.4095
     8.4118   8.4462

          k = 0.2500-0.2500-0.2500 ( 52563 PWs)   bands (ev):

    -5.6250  -5.0996  -5.0968  -5.0930  -4.5995  -4.5972  -4.5935  -4.1622
    -4.0665  -4.0635  -4.0590  -3.6555  -3.6512  -3.6471  -3.6465  -3.6440
    -3.6414  -3.4601  -3.4545  -3.4520  -2.9606  -2.9578  -2.9519  -2.5956
    -2.5877  -2.5858  -2.4294  -2.4233  -2.4210  -2.4206  -2.4168  -2.4155
    -0.8883  -0.8795  -0.8780  -0.8776  -0.8731  -0.8709  -0.7852  -0.7777
    -0.7756  -0.6643  -0.6617  -0.6553  -0.5881  -0.5770  -0.5758   0.1225
     0.2033   0.2095   0.2104   0.2109   0.2180   0.2216   1.0762   1.0849
     1.0877   1.4147   1.4189   1.4215   2.0239   2.0265   2.0292   2.0298
     2.0313   2.0350   2.0862   2.0897   2.0920   2.6353   2.6388   2.6403
     2.7393   2.7415   2.7427   2.7443   2.7469   2.7516   2.7939   2.8001
     2.8024   3.1023   3.1046   3.1069   3.1075   3.1090   3.1140   3.3711
     3.3724   3.3750   3.3841   3.3879   3.3906   3.7304   3.7319   3.7355
     3.7497   3.7538   3.7565   3.8387   3.8397   3.8437   4.1037   4.1072
     4.1131   4.1141   4.1151   4.1158   4.1527   4.1538   4.1584   4.4089
     4.4710   4.4719   4.4770   4.7141   4.7150   4.7205   4.7677   4.7766
     4.7781   4.9350   4.9399   5.2432   5.2442   5.2517   5.7235   5.7293
     6.9346   6.9382   6.9410   7.3732   7.3756   7.3837   7.6002   7.8595
     7.8623   7.8685   7.9870   7.9889   7.9947   8.1489   8.1497   8.1559
     8.1667   8.1686   8.1755   8.3949   8.3976   8.3989   8.4026   8.4036
     8.4056   8.4508

     the Fermi energy is     6.3278 ev

!    total energy              =   -2990.53141005 Ry
     Harris-Foulkes estimate   =   -2990.53141005 Ry
     estimated scf accuracy    <          2.0E-10 Ry

     total all-electron energy =    -37124.666963 Ry

     The total energy is the sum of the following terms:

     one-electron contribution =     178.60488844 Ry
     hartree contribution      =      35.70221871 Ry
     xc contribution           =    -391.44217896 Ry
     ewald contribution        =    -534.00497285 Ry
     one-center paw contrib.   =   -2279.39136539 Ry
     smearing contrib. (-TS)   =       0.00000000 Ry

     convergence has been achieved in  13 iterations

     Forces acting on atoms (Ry/au):

     atom    1 type  1   force =    -0.01815916    0.00359532   -0.00219058
     atom    2 type  1   force =    -0.00001423   -0.00005822   -0.00005126
     atom    3 type  1   force =     0.00001698   -0.00001233   -0.00003811
     atom    4 type  1   force =    -0.00003411    0.00002769   -0.00002761
     atom    5 type  1   force =     0.00000276   -0.00005944   -0.00003747
     atom    6 type  1   force =    -0.00003391    0.00025269   -0.00002754
     atom    7 type  1   force =    -0.00050367    0.00002898   -0.00002745
     atom    8 type  1   force =    -0.00000644   -0.00002153   -0.00003126
     atom    9 type  1   force =    -0.00049009    0.00010158    0.00007578
     atom   10 type  1   force =     0.00002442    0.00003567   -0.00001780
     atom   11 type  1   force =     0.00218163    0.00404304   -0.00280946
     atom   12 type  1   force =     0.00003982   -0.00005085   -0.00006001
     atom   13 type  1   force =    -0.00049743   -0.00008170    0.00008381
     atom   14 type  1   force =     0.00003175   -0.00003122   -0.00002143
     atom   15 type  1   force =    -0.00047956   -0.00017555   -0.00015355
     atom   16 type  1   force =     0.00002727    0.00024705   -0.00003698
     atom   17 type  1   force =     0.00271333    0.00370475    0.00271590
     atom   18 type  1   force =     0.00027515   -0.00017268   -0.00018087
     atom   19 type  1   force =     0.00008091   -0.00002222   -0.00003964
     atom   20 type  1   force =     0.00006926    0.00001860    0.00010421
     atom   21 type  1   force =     0.00028337    0.00005098   -0.00019065
     atom   22 type  1   force =     0.00026548    0.00036507    0.00026193
     atom   23 type  1   force =     0.00007122    0.00003774    0.00010434
     atom   24 type  1   force =     0.00007402   -0.00001166   -0.00004507
     atom   25 type  1   force =     0.00019392    0.00021621   -0.00007077
     atom   26 type  1   force =     0.00021164   -0.00020690   -0.00008485
     atom   27 type  1   force =    -0.00247337    0.00370200    0.00281923
     atom   28 type  1   force =     0.00019875    0.00017125    0.00016347
     atom   29 type  1   force =     0.00001599   -0.00005074    0.00001544
     atom   30 type  1   force =     0.00001136    0.00005461    0.00002159
     atom   31 type  1   force =    -0.00000857    0.00001729    0.00004800
     atom   32 type  1   force =     0.00001492    0.00018116    0.00003772
     atom   33 type  1   force =    -0.00003122    0.00003175    0.00002143
     atom   34 type  1   force =     0.00024705    0.00002727    0.00003698
     atom   35 type  1   force =    -0.00008170   -0.00049743   -0.00008381
     atom   36 type  1   force =    -0.00017555   -0.00047956    0.00015355
     atom   37 type  1   force =     0.00003567    0.00002442    0.00001780
     atom   38 type  1   force =    -0.00005085    0.00003982    0.00006001
     atom   39 type  1   force =     0.00010158   -0.00049009   -0.00007578
     atom   40 type  1   force =     0.00404304    0.00218163    0.00280946
     atom   41 type  1   force =     0.00021621    0.00019392    0.00007077
     atom   42 type  1   force =     0.00370200   -0.00247337   -0.00281923
     atom   43 type  1   force =    -0.00020690    0.00021164    0.00008485
     atom   44 type  1   force =     0.00017125    0.00019875   -0.00016347
     atom   45 type  1   force =    -0.00005074    0.00001599   -0.00001544
     atom   46 type  1   force =     0.00001729   -0.00000857   -0.00004800
     atom   47 type  1   force =     0.00005461    0.00001136   -0.00002159
     atom   48 type  1   force =     0.00018116    0.00001492   -0.00003772
     atom   49 type  1   force =    -0.00005822   -0.00001423    0.00005126
     atom   50 type  1   force =     0.00002769   -0.00003411    0.00002761
     atom   51 type  1   force =     0.00359532   -0.01815916    0.00219058
     atom   52 type  1   force =    -0.00001233    0.00001698    0.00003811
     atom   53 type  1   force =     0.00025269   -0.00003391    0.00002754
     atom   54 type  1   force =    -0.00002153   -0.00000644    0.00003126
     atom   55 type  1   force =    -0.00005944    0.00000276    0.00003747
     atom   56 type  1   force =     0.00002898   -0.00050367    0.00002745
     atom   57 type  1   force =     0.00005098    0.00028337    0.00019065
     atom   58 type  1   force =     0.00003774    0.00007122   -0.00010434
     atom   59 type  1   force =     0.00036507    0.00026548   -0.00026193
     atom   60 type  1   force =    -0.00001166    0.00007402    0.00004507
     atom   61 type  1   force =     0.00370475    0.00271333   -0.00271590
     atom   62 type  1   force =    -0.00002222    0.00008091    0.00003964
     atom   63 type  1   force =    -0.00017268    0.00027515    0.00018087
     atom   64 type  1   force =     0.00001860    0.00006926   -0.00010421

     Total force =     0.029490     Total SCF correction =     0.000025

     Writing output data file pwscf.save
 
     init_run     :      7.13s CPU      7.32s WALL (       1 calls)
     electrons    :    204.39s CPU    222.10s WALL (       1 calls)
     forces       :      3.20s CPU      3.26s WALL (       1 calls)

     Called by init_run:
     wfcinit      :      6.13s CPU      6.24s WALL (       1 calls)
     potinit      :      0.24s CPU      0.24s WALL (       1 calls)

     Called by electrons:
     c_bands      :    181.94s CPU    198.19s WALL (      14 calls)
     sum_band     :     18.31s CPU     18.59s WALL (      14 calls)
     v_of_rho     :      0.69s CPU      0.69s WALL (      14 calls)
     newd         :      0.97s CPU      1.01s WALL (      14 calls)
     PAW_pot      :      2.32s CPU      2.32s WALL (      14 calls)
     mix_rho      :      0.32s CPU      0.33s WALL (      14 calls)

     Called by c_bands:
     init_us_2    :      2.00s CPU      2.01s WALL (      90 calls)
     cegterg      :    177.47s CPU    180.53s WALL (      42 calls)

     Called by sum_band:
     sum_band:bec :      0.04s CPU      0.04s WALL (      42 calls)
     addusdens    :      1.00s CPU      1.10s WALL (      14 calls)

     Called by *egterg:
     h_psi        :     85.99s CPU     86.56s WALL (     181 calls)
     s_psi        :     22.39s CPU     22.46s WALL (     181 calls)
     g_psi        :      0.77s CPU      0.77s WALL (     136 calls)
     cdiaghg      :     23.98s CPU     24.01s WALL (     175 calls)

     Called by h_psi:
     add_vuspsi   :     22.33s CPU     22.39s WALL (     181 calls)

     General routines
     calbec       :     34.74s CPU     35.10s WALL (     235 calls)
     fft          :      0.41s CPU      0.42s WALL (     195 calls)
     fftw         :     41.93s CPU     42.15s WALL (   42192 calls)
     davcio       :      0.00s CPU      0.03s WALL (       3 calls)
 
     Parallel routines
     fft_scatter  :      9.78s CPU      9.62s WALL (   42387 calls)
 
     PWSCF        :  3m35.47s CPU     4m 4.33s WALL

 
   This run was terminated on:  13:53:39   3Feb2016            

=------------------------------------------------------------------------------=
   JOB DONE.
=------------------------------------------------------------------------------=
