
     Program PWSCF v.5.3.0 (svn rev. 11974) starts on  3Feb2016 at 13:45:57 

     This program is part of the open-source Quantum ESPRESSO suite
     for quantum simulation of materials; please cite
         "P. Giannozzi et al., J. Phys.:Condens. Matter 21 395502 (2009);
          URL http://www.quantum-espresso.org", 
     in publications or presentations arising from this work. More details at
     http://www.quantum-espresso.org/quote

     Parallel version (MPI), running on    16 processors
     R & G space division:  proc/nbgrp/npool/nimage =      16
     Reading input from Si.in

     Current dimensions of program PWSCF are:
     Max number of different atomic species (ntypx) = 10
     Max number of k-points (npk) =  40000
     Max angular momentum in pseudopotentials (lmaxx) =  3
               file Si.pbe-n-kjpaw_psl.0.1.UPF: wavefunction(s)  3S renormalized

     Subspace diagonalization in iterative solution of the eigenvalue problem:
     one sub-group per k-point group (pool) will be used
     scalapack distributed-memory algorithm (size of sub-group:  2*  2 procs)

 
     Parallelization info
     --------------------
     sticks:   dense  smooth     PW     G-vecs:    dense   smooth      PW
     Min         424     424    109                26332    26332    3467
     Max         425     425    110                26336    26336    3472
     Sum        6785    6785   1757               421349   421349   55515
 


     bravais-lattice index     =            0
     lattice parameter (alat)  =      20.6591  a.u.
     unit-cell volume          =    8817.2783 (a.u.)^3
     number of atoms/cell      =           64
     number of atomic types    =            1
     number of electrons       =       256.00
     number of Kohn-Sham states=          154
     kinetic-energy cutoff     =      50.0000  Ry
     charge density cutoff     =     200.0000  Ry
     convergence threshold     =      1.0E-09
     mixing beta               =       0.7000
     number of iterations used =            8  plain     mixing
     Exchange-correlation      =  SLA  PW   PBX  PBC ( 1  4  3  4 0 0)

     celldm(1)=  20.659106  celldm(2)=   0.000000  celldm(3)=   0.000000
     celldm(4)=   0.000000  celldm(5)=   0.000000  celldm(6)=   0.000000

     crystal axes: (cart. coord. in units of alat)
               a(1) = (   1.000000   0.000000   0.000000 )  
               a(2) = (   0.000000   1.000000   0.000000 )  
               a(3) = (   0.000000   0.000000   1.000000 )  

     reciprocal axes: (cart. coord. in units 2 pi/alat)
               b(1) = (  1.000000  0.000000  0.000000 )  
               b(2) = (  0.000000  1.000000  0.000000 )  
               b(3) = (  0.000000  0.000000  1.000000 )  


     PseudoPot. # 1 for Si read from file:
     /home/togo/espresso/pseudo/Si.pbe-n-kjpaw_psl.0.1.UPF
     MD5 check sum: b9d333a40e496bef61db012f150758bf
     Pseudo is Projector augmented-wave + core cor, Zval =  4.0
     Generated using "atomic" code by A. Dal Corso  v.5.0.2 svn rev. 9415
     Shape of augmentation charge: PSQ
     Using radial grid of 1141 points,  4 beta functions with: 
                l(1) =   0
                l(2) =   0
                l(3) =   1
                l(4) =   1
     Q(r) pseudized with 0 coefficients 


     atomic species   valence    mass     pseudopotential
        Si             4.00    28.08550     Si( 1.00)

      4 Sym. Ops., with inversion, found ( 2 have fractional translation)



   Cartesian axes

     site n.     atom                  positions (alat units)
         1           Si  tau(   1) = (   0.4404043   0.4375000   0.4375000  )
         2           Si  tau(   2) = (   0.9375000   0.4375000   0.4375000  )
         3           Si  tau(   3) = (   0.4375000   0.9375000   0.4375000  )
         4           Si  tau(   4) = (   0.9375000   0.9375000   0.4375000  )
         5           Si  tau(   5) = (   0.4375000   0.4375000   0.9375000  )
         6           Si  tau(   6) = (   0.9375000   0.4375000   0.9375000  )
         7           Si  tau(   7) = (   0.4375000   0.9375000   0.9375000  )
         8           Si  tau(   8) = (   0.9375000   0.9375000   0.9375000  )
         9           Si  tau(   9) = (   0.4375000   0.1875000   0.1875000  )
        10           Si  tau(  10) = (   0.9375000   0.1875000   0.1875000  )
        11           Si  tau(  11) = (   0.4375000   0.6875000   0.1875000  )
        12           Si  tau(  12) = (   0.9375000   0.6875000   0.1875000  )
        13           Si  tau(  13) = (   0.4375000   0.1875000   0.6875000  )
        14           Si  tau(  14) = (   0.9375000   0.1875000   0.6875000  )
        15           Si  tau(  15) = (   0.4375000   0.6875000   0.6875000  )
        16           Si  tau(  16) = (   0.9375000   0.6875000   0.6875000  )
        17           Si  tau(  17) = (   0.1875000   0.4375000   0.1875000  )
        18           Si  tau(  18) = (   0.6875000   0.4375000   0.1875000  )
        19           Si  tau(  19) = (   0.1875000   0.9375000   0.1875000  )
        20           Si  tau(  20) = (   0.6875000   0.9375000   0.1875000  )
        21           Si  tau(  21) = (   0.1875000   0.4375000   0.6875000  )
        22           Si  tau(  22) = (   0.6875000   0.4375000   0.6875000  )
        23           Si  tau(  23) = (   0.1875000   0.9375000   0.6875000  )
        24           Si  tau(  24) = (   0.6875000   0.9375000   0.6875000  )
        25           Si  tau(  25) = (   0.1875000   0.1875000   0.4375000  )
        26           Si  tau(  26) = (   0.6875000   0.1875000   0.4375000  )
        27           Si  tau(  27) = (   0.1875000   0.6875000   0.4375000  )
        28           Si  tau(  28) = (   0.6875000   0.6875000   0.4375000  )
        29           Si  tau(  29) = (   0.1875000   0.1875000   0.9375000  )
        30           Si  tau(  30) = (   0.6875000   0.1875000   0.9375000  )
        31           Si  tau(  31) = (   0.1875000   0.6875000   0.9375000  )
        32           Si  tau(  32) = (   0.6875000   0.6875000   0.9375000  )
        33           Si  tau(  33) = (   0.0625000   0.0625000   0.0625000  )
        34           Si  tau(  34) = (   0.5625000   0.0625000   0.0625000  )
        35           Si  tau(  35) = (   0.0625000   0.5625000   0.0625000  )
        36           Si  tau(  36) = (   0.5625000   0.5625000   0.0625000  )
        37           Si  tau(  37) = (   0.0625000   0.0625000   0.5625000  )
        38           Si  tau(  38) = (   0.5625000   0.0625000   0.5625000  )
        39           Si  tau(  39) = (   0.0595957   0.5625000   0.5625000  )
        40           Si  tau(  40) = (   0.5625000   0.5625000   0.5625000  )
        41           Si  tau(  41) = (   0.0625000   0.3125000   0.3125000  )
        42           Si  tau(  42) = (   0.5625000   0.3125000   0.3125000  )
        43           Si  tau(  43) = (   0.0625000   0.8125000   0.3125000  )
        44           Si  tau(  44) = (   0.5625000   0.8125000   0.3125000  )
        45           Si  tau(  45) = (   0.0625000   0.3125000   0.8125000  )
        46           Si  tau(  46) = (   0.5625000   0.3125000   0.8125000  )
        47           Si  tau(  47) = (   0.0625000   0.8125000   0.8125000  )
        48           Si  tau(  48) = (   0.5625000   0.8125000   0.8125000  )
        49           Si  tau(  49) = (   0.3125000   0.0625000   0.3125000  )
        50           Si  tau(  50) = (   0.8125000   0.0625000   0.3125000  )
        51           Si  tau(  51) = (   0.3125000   0.5625000   0.3125000  )
        52           Si  tau(  52) = (   0.8125000   0.5625000   0.3125000  )
        53           Si  tau(  53) = (   0.3125000   0.0625000   0.8125000  )
        54           Si  tau(  54) = (   0.8125000   0.0625000   0.8125000  )
        55           Si  tau(  55) = (   0.3125000   0.5625000   0.8125000  )
        56           Si  tau(  56) = (   0.8125000   0.5625000   0.8125000  )
        57           Si  tau(  57) = (   0.3125000   0.3125000   0.0625000  )
        58           Si  tau(  58) = (   0.8125000   0.3125000   0.0625000  )
        59           Si  tau(  59) = (   0.3125000   0.8125000   0.0625000  )
        60           Si  tau(  60) = (   0.8125000   0.8125000   0.0625000  )
        61           Si  tau(  61) = (   0.3125000   0.3125000   0.5625000  )
        62           Si  tau(  62) = (   0.8125000   0.3125000   0.5625000  )
        63           Si  tau(  63) = (   0.3125000   0.8125000   0.5625000  )
        64           Si  tau(  64) = (   0.8125000   0.8125000   0.5625000  )

     number of k points=     3  gaussian smearing, width (Ry)=  0.0100
                       cart. coord. in units 2pi/alat
        k(    1) = (   0.2500000   0.2500000   0.2500000), wk =   0.5000000
        k(    2) = (   0.2500000   0.2500000  -0.2500000), wk =   1.0000000
        k(    3) = (  -0.2500000   0.2500000   0.2500000), wk =   0.5000000

     Dense  grid:   421349 G-vectors     FFT dimensions: (  96,  96,  96)

     Largest allocated arrays     est. size (Mb)     dimensions
        Kohn-Sham Wavefunctions         7.72 Mb     (    3285,  154)
        NL pseudopotentials            25.66 Mb     (    3285,  512)
        Each V/rho on FFT grid          0.84 Mb     (   55296)
        Each G-vector array             0.20 Mb     (   26336)
        G-vector shells                 0.01 Mb     (    1719)
     Largest temporary arrays     est. size (Mb)     dimensions
        Auxiliary wavefunctions        30.88 Mb     (    3285,  616)
        Each subspace H/S matrix        1.45 Mb     (     308,  308)
        Each <psi_i|beta_j> matrix      1.20 Mb     (     512,  154)
        Arrays for rho mixing           6.75 Mb     (   55296,    8)

     Check: negative/imaginary core charge=   -0.000001    0.000000

     Initial potential from superposition of free atoms

     starting charge  255.96421, renormalised to  256.00000
     Starting wfc are  256 randomized atomic wfcs
     Checking if some PAW data can be deallocated... 

     total cpu time spent up to now is        9.4 secs

     per-process dynamical memory:   115.7 Mb

     Self-consistent Calculation

     iteration #  1     ecut=    50.00 Ry     beta=0.70
     Davidson diagonalization with overlap
     ethr =  1.00E-02,  avg # of iterations =  3.0

     Threshold (ethr) on eigenvalues was too large:
     Diagonalizing with lowered threshold

     Davidson diagonalization with overlap
     ethr =  7.00E-04,  avg # of iterations =  1.0

     total cpu time spent up to now is       53.5 secs

     total energy              =   -2990.45699516 Ry
     Harris-Foulkes estimate   =   -2990.87613825 Ry
     estimated scf accuracy    <       1.77288677 Ry

     iteration #  2     ecut=    50.00 Ry     beta=0.70
     Davidson diagonalization with overlap
     ethr =  6.93E-04,  avg # of iterations =  1.0

     total cpu time spent up to now is       63.7 secs

     total energy              =   -2990.52361887 Ry
     Harris-Foulkes estimate   =   -2990.52744304 Ry
     estimated scf accuracy    <       0.07633401 Ry

     iteration #  3     ecut=    50.00 Ry     beta=0.70
     Davidson diagonalization with overlap
     ethr =  2.98E-05,  avg # of iterations = 11.3

     total cpu time spent up to now is       88.3 secs

     total energy              =   -2990.53067413 Ry
     Harris-Foulkes estimate   =   -2990.53135148 Ry
     estimated scf accuracy    <       0.00184103 Ry

     iteration #  4     ecut=    50.00 Ry     beta=0.70
     Davidson diagonalization with overlap
     ethr =  7.19E-07,  avg # of iterations =  5.0

     total cpu time spent up to now is      112.0 secs

     total energy              =   -2990.53070834 Ry
     Harris-Foulkes estimate   =   -2990.53239154 Ry
     estimated scf accuracy    <       0.00509647 Ry

     iteration #  5     ecut=    50.00 Ry     beta=0.70
     Davidson diagonalization with overlap
     ethr =  7.19E-07,  avg # of iterations =  4.0

     total cpu time spent up to now is      128.6 secs

     total energy              =   -2990.53149094 Ry
     Harris-Foulkes estimate   =   -2990.53159262 Ry
     estimated scf accuracy    <       0.00029058 Ry

     iteration #  6     ecut=    50.00 Ry     beta=0.70
     Davidson diagonalization with overlap
     ethr =  1.14E-07,  avg # of iterations =  3.0

     total cpu time spent up to now is      141.7 secs

     total energy              =   -2990.53154363 Ry
     Harris-Foulkes estimate   =   -2990.53156027 Ry
     estimated scf accuracy    <       0.00004938 Ry

     iteration #  7     ecut=    50.00 Ry     beta=0.70
     Davidson diagonalization with overlap
     ethr =  1.93E-08,  avg # of iterations =  2.0

     total cpu time spent up to now is      154.6 secs

     total energy              =   -2990.53155224 Ry
     Harris-Foulkes estimate   =   -2990.53155378 Ry
     estimated scf accuracy    <       0.00000366 Ry

     iteration #  8     ecut=    50.00 Ry     beta=0.70
     Davidson diagonalization with overlap
     ethr =  1.43E-09,  avg # of iterations =  3.0

     total cpu time spent up to now is      170.6 secs

     total energy              =   -2990.53155330 Ry
     Harris-Foulkes estimate   =   -2990.53155347 Ry
     estimated scf accuracy    <       0.00000031 Ry

     iteration #  9     ecut=    50.00 Ry     beta=0.70
     Davidson diagonalization with overlap
     ethr =  1.21E-10,  avg # of iterations =  3.0

     total cpu time spent up to now is      185.3 secs

     total energy              =   -2990.53155329 Ry
     Harris-Foulkes estimate   =   -2990.53155337 Ry
     estimated scf accuracy    <       0.00000009 Ry

     iteration # 10     ecut=    50.00 Ry     beta=0.70
     Davidson diagonalization with overlap
     ethr =  3.54E-11,  avg # of iterations =  3.0

     total cpu time spent up to now is      199.0 secs

     total energy              =   -2990.53155328 Ry
     Harris-Foulkes estimate   =   -2990.53155331 Ry
     estimated scf accuracy    <       0.00000005 Ry

     iteration # 11     ecut=    50.00 Ry     beta=0.70
     Davidson diagonalization with overlap
     ethr =  2.02E-11,  avg # of iterations =  2.0

     total cpu time spent up to now is      211.1 secs

     total energy              =   -2990.53155329 Ry
     Harris-Foulkes estimate   =   -2990.53155328 Ry
     estimated scf accuracy    <          1.8E-09 Ry

     iteration # 12     ecut=    50.00 Ry     beta=0.70
     Davidson diagonalization with overlap
     ethr =  6.89E-13,  avg # of iterations =  3.0

     total cpu time spent up to now is      228.6 secs

     total energy              =   -2990.53155329 Ry
     Harris-Foulkes estimate   =   -2990.53155329 Ry
     estimated scf accuracy    <          1.5E-09 Ry

     iteration # 13     ecut=    50.00 Ry     beta=0.70
     Davidson diagonalization with overlap
     ethr =  5.89E-13,  avg # of iterations =  2.0

     total cpu time spent up to now is      241.9 secs

     End of self-consistent calculation

          k = 0.2500 0.2500 0.2500 ( 52563 PWs)   bands (ev):

    -5.6250  -5.1020  -5.0946  -5.0927  -4.6021  -4.5949  -4.5931  -4.1622
    -4.0686  -4.0616  -4.0586  -3.6581  -3.6482  -3.6470  -3.6444  -3.6442
    -3.6433  -3.4618  -3.4530  -3.4518  -2.9617  -2.9565  -2.9518  -2.5940
    -2.5885  -2.5864  -2.4330  -2.4209  -2.4207  -2.4180  -2.4179  -2.4161
    -0.8908  -0.8790  -0.8780  -0.8749  -0.8728  -0.8717  -0.7813  -0.7804
    -0.7765  -0.6666  -0.6606  -0.6542  -0.5856  -0.5816  -0.5740   0.1226
     0.2016   0.2103   0.2121   0.2141   0.2173   0.2182   1.0751   1.0849
     1.0888   1.4129   1.4202   1.4221   2.0222   2.0277   2.0287   2.0300
     2.0322   2.0351   2.0868   2.0904   2.0905   2.6355   2.6391   2.6399
     2.7395   2.7410   2.7415   2.7441   2.7502   2.7509   2.7930   2.7997
     2.8030   3.0979   3.1055   3.1080   3.1085   3.1099   3.1148   3.3703
     3.3724   3.3766   3.3818   3.3899   3.3901   3.7259   3.7353   3.7362
     3.7488   3.7546   3.7572   3.8370   3.8412   3.8438   4.1008   4.1098
     4.1116   4.1141   4.1156   4.1171   4.1510   4.1557   4.1583   4.4092
     4.4706   4.4714   4.4779   4.7121   4.7170   4.7201   4.7689   4.7752
     4.7787   4.9325   4.9423   5.2414   5.2469   5.2507   5.7207   5.7322
     6.9326   6.9400   6.9411   7.3715   7.3784   7.3827   7.6002   7.8578
     7.8642   7.8684   7.9874   7.9878   7.9958   8.1485   8.1499   8.1561
     8.1658   8.1688   8.1760   8.3916   8.3970   8.4010   8.4030   8.4038
     8.4072   8.4505

          k = 0.2500 0.2500-0.2500 ( 52563 PWs)   bands (ev):

    -5.6251  -5.0997  -5.0972  -5.0918  -4.6002  -4.5976  -4.5925  -4.1642
    -4.0673  -4.0645  -4.0593  -3.6520  -3.6510  -3.6485  -3.6484  -3.6429
    -3.6367  -3.4574  -3.4528  -3.4519  -2.9643  -2.9601  -2.9569  -2.5926
    -2.5885  -2.5858  -2.4263  -2.4250  -2.4224  -2.4217  -2.4170  -2.4104
    -0.8852  -0.8827  -0.8817  -0.8795  -0.8758  -0.8679  -0.7851  -0.7823
    -0.7760  -0.6675  -0.6670  -0.6575  -0.5776  -0.5718  -0.5659   0.1300
     0.2037   0.2044   0.2066   0.2089   0.2123   0.2196   1.0833   1.0867
     1.0934   1.4147   1.4166   1.4235   2.0233   2.0261   2.0291   2.0295
     2.0327   2.0335   2.0851   2.0858   2.0903   2.6400   2.6413   2.6448
     2.7352   2.7367   2.7428   2.7433   2.7458   2.7475   2.7904   2.7924
     2.7996   3.1031   3.1047   3.1066   3.1083   3.1085   3.1153   3.3668
     3.3714   3.3725   3.3829   3.3832   3.3898   3.7343   3.7348   3.7410
     3.7567   3.7597   3.7623   3.8352   3.8381   3.8417   4.1119   4.1130
     4.1150   4.1165   4.1204   4.1247   4.1487   4.1521   4.1567   4.4171
     4.4646   4.4704   4.4709   4.7092   4.7125   4.7156   4.7791   4.7836
     4.7888   4.9302   4.9401   5.2359   5.2409   5.2454   5.7160   5.7272
     6.9316   6.9360   6.9360   7.3705   7.3766   7.3807   7.5972   7.8551
     7.8609   7.8648   7.9906   7.9916   7.9970   8.1451   8.1531   8.1534
     8.1660   8.1699   8.1704   8.3978   8.4001   8.4032   8.4045   8.4071
     8.4121   8.4460

          k =-0.2500 0.2500 0.2500 ( 52563 PWs)   bands (ev):

    -5.6250  -5.1007  -5.0946  -5.0941  -4.6011  -4.5949  -4.5941  -4.1619
    -4.0674  -4.0616  -4.0603  -3.6573  -3.6530  -3.6465  -3.6463  -3.6418
    -3.6403  -3.4622  -3.4522  -3.4518  -2.9622  -2.9565  -2.9515  -2.5971
    -2.5864  -2.5856  -2.4297  -2.4265  -2.4203  -2.4201  -2.4153  -2.4144
    -0.8906  -0.8776  -0.8775  -0.8772  -0.8738  -0.8706  -0.7863  -0.7764
    -0.7752  -0.6675  -0.6605  -0.6536  -0.5878  -0.5793  -0.5740   0.1226
     0.1985   0.2105   0.2112   0.2135   0.2198   0.2200   1.0743   1.0856
     1.0888   1.4125   1.4207   1.4220   2.0230   2.0283   2.0293   2.0298
     2.0309   2.0340   2.0858   2.0907   2.0921   2.6347   2.6398   2.6400
     2.7394   2.7402   2.7436   2.7452   2.7463   2.7510   2.7944   2.7989
     2.8040   3.0984   3.1060   3.1077   3.1088   3.1099   3.1138   3.3705
     3.3735   3.3750   3.3815   3.3901   3.3904   3.7273   3.7340   3.7361
     3.7480   3.7555   3.7572   3.8369   3.8400   3.8450   4.1004   4.1086
     4.1128   4.1143   4.1148   4.1177   4.1513   4.1542   4.1600   4.4092
     4.4707   4.4733   4.4760   4.7120   4.7153   4.7215   4.7672   4.7768
     4.7787   4.9325   4.9425   5.2414   5.2446   5.2531   5.7207   5.7321
     6.9326   6.9400   6.9411   7.3716   7.3795   7.3816   7.6002   7.8577
     7.8654   7.8672   7.9863   7.9878   7.9969   8.1488   8.1513   8.1561
     8.1655   8.1707   8.1725   8.3905   8.3979   8.3999   8.4026   8.4039
     8.4086   8.4505

     the Fermi energy is     6.3276 ev

!    total energy              =   -2990.53155329 Ry
     Harris-Foulkes estimate   =   -2990.53155329 Ry
     estimated scf accuracy    <          1.4E-10 Ry

     total all-electron energy =    -37124.667106 Ry

     The total energy is the sum of the following terms:

     one-electron contribution =     178.60580701 Ry
     hartree contribution      =      35.70180069 Ry
     xc contribution           =    -391.44199985 Ry
     ewald contribution        =    -534.00585511 Ry
     one-center paw contrib.   =   -2279.39130603 Ry
     smearing contrib. (-TS)   =       0.00000000 Ry

     convergence has been achieved in  13 iterations

     Forces acting on atoms (Ry/au):

     atom    1 type  1   force =    -0.01587838   -0.00003816   -0.00003816
     atom    2 type  1   force =    -0.00390669   -0.00270545   -0.00270545
     atom    3 type  1   force =     0.00002831   -0.00002520   -0.00002603
     atom    4 type  1   force =     0.00005348   -0.00003831   -0.00005008
     atom    5 type  1   force =     0.00002831   -0.00002603   -0.00002520
     atom    6 type  1   force =     0.00005348   -0.00005008   -0.00003831
     atom    7 type  1   force =    -0.00045355   -0.00003166   -0.00003166
     atom    8 type  1   force =    -0.00023165   -0.00002807   -0.00002807
     atom    9 type  1   force =    -0.00050713    0.00014553    0.00014553
     atom   10 type  1   force =    -0.00025600    0.00003761    0.00003761
     atom   11 type  1   force =    -0.00054993    0.00013604   -0.00008447
     atom   12 type  1   force =     0.00006116    0.00005946    0.00002906
     atom   13 type  1   force =    -0.00054993   -0.00008447    0.00013604
     atom   14 type  1   force =     0.00006116    0.00002906    0.00005946
     atom   15 type  1   force =    -0.00051572   -0.00007574   -0.00007574
     atom   16 type  1   force =    -0.00392984    0.00269600    0.00269600
     atom   17 type  1   force =     0.00028993   -0.00005835    0.00018981
     atom   18 type  1   force =     0.00021005   -0.00008497   -0.00025985
     atom   19 type  1   force =    -0.00021002    0.00001836   -0.00010413
     atom   20 type  1   force =     0.00006436    0.00002122    0.00004580
     atom   21 type  1   force =    -0.00357976    0.00259137   -0.00270963
     atom   22 type  1   force =     0.00025032    0.00015198    0.00019522
     atom   23 type  1   force =     0.00010182    0.00004662    0.00002522
     atom   24 type  1   force =     0.00001429    0.00003613   -0.00010553
     atom   25 type  1   force =     0.00028993    0.00018981   -0.00005835
     atom   26 type  1   force =     0.00021005   -0.00025985   -0.00008497
     atom   27 type  1   force =    -0.00357976   -0.00270963    0.00259137
     atom   28 type  1   force =     0.00025032    0.00019522    0.00015198
     atom   29 type  1   force =    -0.00021002   -0.00010413    0.00001836
     atom   30 type  1   force =     0.00006436    0.00004580    0.00002122
     atom   31 type  1   force =     0.00010182    0.00002522    0.00004662
     atom   32 type  1   force =     0.00001429   -0.00010553    0.00003613
     atom   33 type  1   force =     0.00045355    0.00003166    0.00003166
     atom   34 type  1   force =     0.00023165    0.00002807    0.00002807
     atom   35 type  1   force =    -0.00002831    0.00002603    0.00002520
     atom   36 type  1   force =    -0.00005348    0.00005008    0.00003831
     atom   37 type  1   force =    -0.00002831    0.00002520    0.00002603
     atom   38 type  1   force =    -0.00005348    0.00003831    0.00005008
     atom   39 type  1   force =     0.01587838    0.00003816    0.00003816
     atom   40 type  1   force =     0.00390669    0.00270545    0.00270545
     atom   41 type  1   force =     0.00051572    0.00007574    0.00007574
     atom   42 type  1   force =     0.00392984   -0.00269600   -0.00269600
     atom   43 type  1   force =     0.00054993    0.00008447   -0.00013604
     atom   44 type  1   force =    -0.00006116   -0.00002906   -0.00005946
     atom   45 type  1   force =     0.00054993   -0.00013604    0.00008447
     atom   46 type  1   force =    -0.00006116   -0.00005946   -0.00002906
     atom   47 type  1   force =     0.00050713   -0.00014553   -0.00014553
     atom   48 type  1   force =     0.00025600   -0.00003761   -0.00003761
     atom   49 type  1   force =    -0.00010182   -0.00004662   -0.00002522
     atom   50 type  1   force =    -0.00001429   -0.00003613    0.00010553
     atom   51 type  1   force =     0.00357976   -0.00259137    0.00270963
     atom   52 type  1   force =    -0.00025032   -0.00015198   -0.00019522
     atom   53 type  1   force =     0.00021002   -0.00001836    0.00010413
     atom   54 type  1   force =    -0.00006436   -0.00002122   -0.00004580
     atom   55 type  1   force =    -0.00028993    0.00005835   -0.00018981
     atom   56 type  1   force =    -0.00021005    0.00008497    0.00025985
     atom   57 type  1   force =    -0.00010182   -0.00002522   -0.00004662
     atom   58 type  1   force =    -0.00001429    0.00010553   -0.00003613
     atom   59 type  1   force =     0.00021002    0.00010413   -0.00001836
     atom   60 type  1   force =    -0.00006436   -0.00004580   -0.00002122
     atom   61 type  1   force =     0.00357976    0.00270963   -0.00259137
     atom   62 type  1   force =    -0.00025032   -0.00019522   -0.00015198
     atom   63 type  1   force =    -0.00028993   -0.00018981    0.00005835
     atom   64 type  1   force =    -0.00021005    0.00025985    0.00008497

     Total force =     0.027139     Total SCF correction =     0.000021

     Writing output data file pwscf.save
 
     init_run     :      6.71s CPU      9.04s WALL (       1 calls)
     electrons    :    217.34s CPU    233.23s WALL (       1 calls)
     forces       :      3.25s CPU      3.34s WALL (       1 calls)

     Called by init_run:
     wfcinit      :      6.12s CPU      7.70s WALL (       1 calls)
     potinit      :      0.24s CPU      0.24s WALL (       1 calls)

     Called by electrons:
     c_bands      :    194.88s CPU    203.59s WALL (      14 calls)
     sum_band     :     18.34s CPU     24.74s WALL (      14 calls)
     v_of_rho     :      0.69s CPU      0.69s WALL (      14 calls)
     newd         :      0.98s CPU      1.02s WALL (      14 calls)
     PAW_pot      :      2.30s CPU      2.31s WALL (      14 calls)
     mix_rho      :      0.31s CPU      0.32s WALL (      14 calls)

     Called by c_bands:
     init_us_2    :      1.96s CPU      1.99s WALL (      90 calls)
     cegterg      :    183.61s CPU    187.57s WALL (      42 calls)

     Called by sum_band:
     sum_band:bec :      0.03s CPU      0.03s WALL (      42 calls)
     addusdens    :      1.02s CPU      1.12s WALL (      14 calls)

     Called by *egterg:
     h_psi        :     88.22s CPU     88.58s WALL (     184 calls)
     s_psi        :     22.57s CPU     22.65s WALL (     184 calls)
     g_psi        :      0.78s CPU      0.79s WALL (     139 calls)
     cdiaghg      :     24.95s CPU     25.01s WALL (     178 calls)

     Called by h_psi:
     add_vuspsi   :     22.66s CPU     22.72s WALL (     184 calls)

     General routines
     calbec       :     34.79s CPU     34.90s WALL (     238 calls)
     fft          :      0.40s CPU      0.41s WALL (     195 calls)
     fftw         :     43.39s CPU     43.70s WALL (   42376 calls)
     davcio       :      0.00s CPU      0.03s WALL (       3 calls)
 
     Parallel routines
     fft_scatter  :     13.17s CPU     12.86s WALL (   42571 calls)
 
     PWSCF        :  3m47.82s CPU     4m19.03s WALL

 
   This run was terminated on:  13:50:16   3Feb2016            

=------------------------------------------------------------------------------=
   JOB DONE.
=------------------------------------------------------------------------------=
