<?xml version="1.0" encoding="ISO-8859-1"?>
<modeling>
 <generator>
  <i name="program" type="string">vasp </i>
  <i name="version" type="string">5.4.1  </i>
  <i name="subversion" type="string">05Feb16 (build Mar 26 2016 11:58:25) complex                          parallel </i>
  <i name="platform" type="string">IFC91_ompi </i>
  <i name="date" type="string">2017 03 12 </i>
  <i name="time" type="string">12:17:11 </i>
 </generator>
 <incar>
  <i type="string" name="PREC">accurate</i>
  <i type="int" name="IALGO">    38</i>
  <i type="logical" name="ADDGRID"> T  </i>
  <i type="int" name="NELMIN">     5</i>
  <i type="int" name="IBRION">    -1</i>
  <i name="EDIFF">      0.00000001</i>
  <i name="ENCUT">    300.00000000</i>
  <i type="logical" name="LREAL"> F  </i>
  <i type="int" name="ISMEAR">     0</i>
  <i name="SIGMA">      0.05000000</i>
  <i type="logical" name="LWAVE"> F  </i>
  <i type="logical" name="LCHARG"> F  </i>
  <v type="int" name="KPOINT_BSE">    -1     0     0     0</v>
 </incar>
 <kpoints>
  <generation param="Monkhorst-Pack">
   <v type="int" name="divisions">       2        2        2 </v>
   <v name="usershift">      0.00000000       0.00000000       0.00000000 </v>
   <v name="genvec1">      0.50000000       0.00000000       0.00000000 </v>
   <v name="genvec2">      0.00000000       0.50000000       0.00000000 </v>
   <v name="genvec3">      0.00000000       0.00000000       0.50000000 </v>
   <v name="shift">      0.50000000       0.50000000       0.50000000 </v>
  </generation>
  <varray name="kpointlist" >
   <v>       0.25000000       0.25000000       0.25000000 </v>
   <v>      -0.25000000       0.25000000       0.25000000 </v>
   <v>       0.25000000      -0.25000000       0.25000000 </v>
   <v>      -0.25000000      -0.25000000       0.25000000 </v>
  </varray>
  <varray name="weights" >
   <v>       0.25000000 </v>
   <v>       0.25000000 </v>
   <v>       0.25000000 </v>
   <v>       0.25000000 </v>
  </varray>
 </kpoints>
 <parameters>
  <separator name="general" >
   <i type="string" name="SYSTEM">unknown system</i>
   <i type="logical" name="LCOMPAT"> F  </i>
  </separator>
  <separator name="electronic" >
   <i type="string" name="PREC">accura</i>
   <i name="ENMAX">    300.00000000</i>
   <i name="ENAUG">    322.06900000</i>
   <i name="EDIFF">      0.00000001</i>
   <i type="int" name="IALGO">    38</i>
   <i type="int" name="IWAVPR">    10</i>
   <i type="int" name="NBANDS">   164</i>
   <i name="NELECT">    256.00000000</i>
   <i type="int" name="TURBO">     0</i>
   <i type="int" name="IRESTART">     0</i>
   <i type="int" name="NREBOOT">     0</i>
   <i type="int" name="NMIN">     0</i>
   <i name="EREF">      0.00000000</i>
   <separator name="electronic smearing" >
    <i type="int" name="ISMEAR">     0</i>
    <i name="SIGMA">      0.05000000</i>
    <i name="KSPACING">      0.50000000</i>
    <i type="logical" name="KGAMMA"> T  </i>
   </separator>
   <separator name="electronic projectors" >
    <i type="logical" name="LREAL"> F  </i>
    <v name="ROPT">      0.00000000</v>
    <i type="int" name="LMAXPAW">  -100</i>
    <i type="int" name="LMAXMIX">     2</i>
    <i type="logical" name="NLSPLINE"> F  </i>
   </separator>
   <separator name="electronic startup" >
    <i type="int" name="ISTART">     0</i>
    <i type="int" name="ICHARG">     2</i>
    <i type="int" name="INIWAV">     1</i>
   </separator>
   <separator name="electronic spin" >
    <i type="int" name="ISPIN">     1</i>
    <i type="logical" name="LNONCOLLINEAR"> F  </i>
    <v name="MAGMOM">      1.00000000      1.00000000      1.00000000      1.00000000      1.00000000      1.00000000      1.00000000      1.00000000      1.00000000      1.00000000      1.00000000      1.00000000      1.00000000      1.00000000      1.00000000      1.00000000      1.00000000      1.00000000      1.00000000      1.00000000
      1.00000000      1.00000000      1.00000000      1.00000000      1.00000000      1.00000000      1.00000000      1.00000000      1.00000000      1.00000000      1.00000000      1.00000000      1.00000000      1.00000000      1.00000000      1.00000000      1.00000000      1.00000000      1.00000000      1.00000000
      1.00000000      1.00000000      1.00000000      1.00000000      1.00000000      1.00000000      1.00000000      1.00000000      1.00000000      1.00000000      1.00000000      1.00000000      1.00000000      1.00000000      1.00000000      1.00000000      1.00000000      1.00000000      1.00000000      1.00000000
      1.00000000      1.00000000      1.00000000      1.00000000</v>
    <i name="NUPDOWN">     -1.00000000</i>
    <i type="logical" name="LSORBIT"> F  </i>
    <v name="SAXIS">      0.00000000      0.00000000      1.00000000</v>
    <i type="logical" name="LSPIRAL"> F  </i>
    <v name="QSPIRAL">      0.00000000      0.00000000      0.00000000</v>
    <i type="logical" name="LZEROZ"> F  </i>
   </separator>
   <separator name="electronic exchange-correlation" >
    <i type="logical" name="LASPH"> F  </i>
    <i type="logical" name="LMETAGGA"> F  </i>
   </separator>
   <separator name="electronic convergence" >
    <i type="int" name="NELM">    60</i>
    <i type="int" name="NELMDL">    -5</i>
    <i type="int" name="NELMIN">     5</i>
    <i name="ENINI">    300.00000000</i>
    <separator name="electronic convergence detail" >
     <i type="logical" name="LDIAG"> T  </i>
     <i type="logical" name="LSUBROT"> F  </i>
     <i name="WEIMIN">      0.00000000</i>
     <i name="EBREAK">      0.00000000</i>
     <i name="DEPER">      0.30000000</i>
     <i type="int" name="NRMM">     4</i>
     <i name="TIME">      0.40000000</i>
    </separator>
   </separator>
   <separator name="electronic mixer" >
    <i name="AMIX">      0.40000000</i>
    <i name="BMIX">      1.00000000</i>
    <i name="AMIN">      0.10000000</i>
    <i name="AMIX_MAG">      1.60000000</i>
    <i name="BMIX_MAG">      1.00000000</i>
    <separator name="electronic mixer details" >
     <i type="int" name="IMIX">     4</i>
     <i type="logical" name="MIXFIRST"> F  </i>
     <i type="int" name="MAXMIX">   -45</i>
     <i name="WC">    100.00000000</i>
     <i type="int" name="INIMIX">     1</i>
     <i type="int" name="MIXPRE">     1</i>
     <i type="int" name="MREMOVE">     5</i>
    </separator>
   </separator>
   <separator name="electronic dipolcorrection" >
    <i type="logical" name="LDIPOL"> F  </i>
    <i type="logical" name="LMONO"> F  </i>
    <i type="int" name="IDIPOL">     0</i>
    <i name="EPSILON">      1.00000000</i>
    <v name="DIPOL">   -100.00000000   -100.00000000   -100.00000000</v>
    <i name="EFIELD">      0.00000000</i>
   </separator>
  </separator>
  <separator name="grids" >
   <i type="int" name="NGX">    64</i>
   <i type="int" name="NGY">    64</i>
   <i type="int" name="NGZ">    64</i>
   <i type="int" name="NGXF">   128</i>
   <i type="int" name="NGYF">   128</i>
   <i type="int" name="NGZF">   128</i>
   <i type="logical" name="ADDGRID"> T  </i>
  </separator>
  <separator name="ionic" >
   <i type="int" name="NSW">     0</i>
   <i type="int" name="IBRION">    -1</i>
   <i type="int" name="ISIF">     2</i>
   <i name="PSTRESS">      0.00000000</i>
   <i name="EDIFFG">      0.00000010</i>
   <i type="int" name="NFREE">     0</i>
   <i name="POTIM">      0.50000000</i>
   <i name="SMASS">     -3.00000000</i>
   <i name="SCALEE">      1.00000000</i>
  </separator>
  <separator name="ionic md" >
   <i name="TEBEG">      0.00010000</i>
   <i name="TEEND">      0.00010000</i>
   <i type="int" name="NBLOCK">     1</i>
   <i type="int" name="KBLOCK">     1</i>
   <i type="int" name="NPACO">   256</i>
   <i name="APACO">     16.00000000</i>
  </separator>
  <separator name="symmetry" >
   <i type="int" name="ISYM">     2</i>
   <i name="SYMPREC">      0.00001000</i>
  </separator>
  <separator name="dos" >
   <i type="logical" name="LORBIT"> F  </i>
   <v name="RWIGS">     -1.00000000</v>
   <i type="int" name="NEDOS">   301</i>
   <i name="EMIN">     10.00000000</i>
   <i name="EMAX">    -10.00000000</i>
   <i name="EFERMI">      0.00000000</i>
  </separator>
  <separator name="writing" >
   <i type="int" name="NWRITE">     2</i>
   <i type="logical" name="LWAVE"> F  </i>
   <i type="logical" name="LCHARG"> F  </i>
   <i type="logical" name="LPARD"> F  </i>
   <i type="logical" name="LVTOT"> F  </i>
   <i type="logical" name="LVHAR"> F  </i>
   <i type="logical" name="LELF"> F  </i>
   <i type="logical" name="LOPTICS"> F  </i>
   <v name="STM">      0.00000000      0.00000000      0.00000000      0.00000000      0.00000000      0.00000000      0.00000000</v>
  </separator>
  <separator name="performance" >
   <i type="int" name="NPAR">     4</i>
   <i type="int" name="NSIM">     4</i>
   <i type="int" name="NBLK">    -1</i>
   <i type="logical" name="LPLANE"> T  </i>
   <i type="logical" name="LSCALAPACK"> T  </i>
   <i type="logical" name="LSCAAWARE"> F  </i>
   <i type="logical" name="LSCALU"> F  </i>
   <i type="logical" name="LASYNC"> F  </i>
   <i type="logical" name="LORBITALREAL"> F  </i>
  </separator>
  <separator name="miscellaneous" >
   <i type="int" name="IDIOT">     3</i>
   <i type="logical" name="LMUSIC"> F  </i>
   <v name="POMASS">     28.08500000</v>
   <v name="DARWINR">      0.00000000</v>
   <v name="DARWINV">      1.00000000</v>
   <i type="logical" name="LCORR"> T  </i>
  </separator>
  <i type="logical" name="GGA_COMPAT"> T  </i>
  <i type="logical" name="LBERRY"> F  </i>
  <i type="int" name="ICORELEVEL">     0</i>
  <i type="logical" name="LDAU"> F  </i>
  <i type="int" name="I_CONSTRAINED_M">     0</i>
  <separator name="electronic exchange-correlation" >
   <i type="string" name="GGA">--</i>
   <i type="int" name="VOSKOWN">     0</i>
   <i type="logical" name="LHFCALC"> F  </i>
   <i type="string" name="PRECFOCK"></i>
   <i type="logical" name="LSYMGRAD"> F  </i>
   <i type="logical" name="LHFONE"> F  </i>
   <i type="logical" name="LRHFCALC"> F  </i>
   <i type="logical" name="LTHOMAS"> F  </i>
   <i type="logical" name="LMODELHF"> F  </i>
   <i name="ENCUT4O">     -1.00000000</i>
   <i type="int" name="EXXOEP">     0</i>
   <i type="int" name="FOURORBIT">     0</i>
   <i name="AEXX">      0.00000000</i>
   <i name="HFALPHA">      0.00000000</i>
   <i name="MCALPHA">      0.00000000</i>
   <i name="ALDAX">      1.00000000</i>
   <i name="AGGAX">      1.00000000</i>
   <i name="ALDAC">      1.00000000</i>
   <i name="AGGAC">      1.00000000</i>
   <i type="int" name="NKREDX">     1</i>
   <i type="int" name="NKREDY">     1</i>
   <i type="int" name="NKREDZ">     1</i>
   <i type="logical" name="SHIFTRED"> F  </i>
   <i type="logical" name="ODDONLY"> F  </i>
   <i type="logical" name="EVENONLY"> F  </i>
   <i type="int" name="LMAXFOCK">     0</i>
   <i type="int" name="NMAXFOCKAE">     0</i>
   <i type="logical" name="LFOCKAEDFT"> F  </i>
   <i name="HFSCREEN">      0.00000000</i>
   <i name="HFSCREENC">      0.00000000</i>
   <i type="int" name="NBANDSGWLOW">     0</i>
  </separator>
  <separator name="vdW DFT" >
   <i type="logical" name="LUSE_VDW"> F  </i>
   <i name="Zab_VDW">     -0.84910000</i>
   <i name="PARAM1">      0.12340000</i>
   <i name="PARAM2">      1.00000000</i>
   <i name="PARAM3">      0.00000000</i>
  </separator>
  <separator name="model GW" >
   <i type="int" name="MODEL_GW">     0</i>
   <i name="MODEL_EPS0">     12.24990743</i>
   <i name="MODEL_ALPHA">      1.00000000</i>
  </separator>
  <separator name="linear response parameters" >
   <i type="logical" name="LEPSILON"> F  </i>
   <i type="logical" name="LRPA"> F  </i>
   <i type="logical" name="LNABLA"> F  </i>
   <i type="logical" name="LVEL"> F  </i>
   <i type="int" name="KINTER">     0</i>
   <i name="CSHIFT">      0.10000000</i>
   <i name="OMEGAMAX">     -1.00000000</i>
   <i name="DEG_THRESHOLD">      0.00200000</i>
  </separator>
  <separator name="orbital magnetization" >
   <i type="logical" name="NUCIND"> F  </i>
   <v name="MAGPOS">      0.00000000      0.00000000      0.00000000</v>
   <i type="logical" name="LNICSALL"> T  </i>
   <i type="logical" name="ORBITALMAG"> F  </i>
   <i type="logical" name="LMAGBLOCH"> F  </i>
   <i type="logical" name="LCHIMAG"> F  </i>
   <i type="logical" name="LGAUGE"> T  </i>
   <i type="int" name="MAGATOM">     0</i>
   <v name="MAGDIPOL">      0.00000000      0.00000000      0.00000000</v>
   <v name="AVECCONST">      0.00000000      0.00000000      0.00000000</v>
  </separator>
  <separator name="response functions" >
   <i type="logical" name="LADDER"> F  </i>
   <i type="logical" name="LFXC"> F  </i>
   <i type="logical" name="LHARTREE"> T  </i>
   <i type="int" name="IBSE">     0</i>
   <v type="int" name="KPOINT">    -1     0     0     0</v>
   <i type="logical" name="LTCTE"> F  </i>
   <i type="logical" name="LTETE"> F  </i>
   <i type="logical" name="LTRIPLET"> F  </i>
   <i type="logical" name="LFXCEPS"> F  </i>
   <i type="logical" name="LFXHEG"> F  </i>
   <i type="int" name="NATURALO">     0</i>
   <i type="logical" name="L2ORDER"> F  </i>
   <i type="logical" name="LUSEW"> F  </i>
   <i name="ENCUTGW">     -2.00000000</i>
   <i name="ENCUTGWSOFT">     -2.00000000</i>
   <i name="ENCUTLF">     -1.00000000</i>
   <i type="int" name="LMAXMP2">    -1</i>
   <i name="SCISSOR">      0.00000000</i>
   <i type="int" name="NOMEGA">     0</i>
   <i type="int" name="NOMEGAR">     0</i>
   <i type="int" name="NBANDSGW">    -1</i>
   <i type="int" name="NBANDSO">    -1</i>
   <i type="int" name="NBANDSV">    -1</i>
   <i type="int" name="NELM">     1</i>
   <i type="int" name="NELMHF">     1</i>
   <i type="int" name="DIM">     3</i>
   <i type="int" name="ANTIRES">     0</i>
   <i name="OMEGAMAX">    -30.00000000</i>
   <i name="OMEGAMIN">    -30.00000000</i>
   <i name="OMEGATL">   -200.00000000</i>
   <i type="int" name="OMEGAGRID">     0</i>
   <i name="CSHIFT">     -0.10000000</i>
   <i type="logical" name="SELFENERGY"> F  </i>
   <i type="logical" name="LSPECTRAL"> F  </i>
   <i type="logical" name="LSPECTRALGW"> F  </i>
   <i type="logical" name="LSINGLES"> F  </i>
   <i type="logical" name="LFERMIGW"> F  </i>
   <i type="logical" name="ODDONLYGW"> F  </i>
   <i type="logical" name="EVENONLYGW"> F  </i>
   <i type="int" name="NKREDLFX">     1</i>
   <i type="int" name="NKREDLFY">     1</i>
   <i type="int" name="NKREDLFZ">     1</i>
   <i type="int" name="MAXMEM">  1800</i>
   <i type="int" name="TELESCOPE">     0</i>
   <i type="int" name="TAUPAR">     1</i>
   <i type="int" name="OMEGAPAR">    -1</i>
   <i name="LAMBDA">      1.00000000</i>
  </separator>
  <separator name="External order field" >
   <i name="OFIELD_KAPPA">      0.00000000</i>
   <v name="OFIELD_K">      0.00000000      0.00000000      0.00000000</v>
   <i name="OFIELD_Q6_NEAR">      0.00000000</i>
   <i name="OFIELD_Q6_FAR">      0.00000000</i>
   <i name="OFIELD_A">      0.00000000</i>
  </separator>
 </parameters>
 <atominfo>
  <atoms>      64 </atoms>
  <types>       1 </types>
  <array name="atoms" >
   <dimension dim="1">ion</dimension>
   <field type="string">element</field>
   <field type="int">atomtype</field>
   <set>
    <rc><c>Si</c><c>   1</c></rc>
    <rc><c>Si</c><c>   1</c></rc>
    <rc><c>Si</c><c>   1</c></rc>
    <rc><c>Si</c><c>   1</c></rc>
    <rc><c>Si</c><c>   1</c></rc>
    <rc><c>Si</c><c>   1</c></rc>
    <rc><c>Si</c><c>   1</c></rc>
    <rc><c>Si</c><c>   1</c></rc>
    <rc><c>Si</c><c>   1</c></rc>
    <rc><c>Si</c><c>   1</c></rc>
    <rc><c>Si</c><c>   1</c></rc>
    <rc><c>Si</c><c>   1</c></rc>
    <rc><c>Si</c><c>   1</c></rc>
    <rc><c>Si</c><c>   1</c></rc>
    <rc><c>Si</c><c>   1</c></rc>
    <rc><c>Si</c><c>   1</c></rc>
    <rc><c>Si</c><c>   1</c></rc>
    <rc><c>Si</c><c>   1</c></rc>
    <rc><c>Si</c><c>   1</c></rc>
    <rc><c>Si</c><c>   1</c></rc>
    <rc><c>Si</c><c>   1</c></rc>
    <rc><c>Si</c><c>   1</c></rc>
    <rc><c>Si</c><c>   1</c></rc>
    <rc><c>Si</c><c>   1</c></rc>
    <rc><c>Si</c><c>   1</c></rc>
    <rc><c>Si</c><c>   1</c></rc>
    <rc><c>Si</c><c>   1</c></rc>
    <rc><c>Si</c><c>   1</c></rc>
    <rc><c>Si</c><c>   1</c></rc>
    <rc><c>Si</c><c>   1</c></rc>
    <rc><c>Si</c><c>   1</c></rc>
    <rc><c>Si</c><c>   1</c></rc>
    <rc><c>Si</c><c>   1</c></rc>
    <rc><c>Si</c><c>   1</c></rc>
    <rc><c>Si</c><c>   1</c></rc>
    <rc><c>Si</c><c>   1</c></rc>
    <rc><c>Si</c><c>   1</c></rc>
    <rc><c>Si</c><c>   1</c></rc>
    <rc><c>Si</c><c>   1</c></rc>
    <rc><c>Si</c><c>   1</c></rc>
    <rc><c>Si</c><c>   1</c></rc>
    <rc><c>Si</c><c>   1</c></rc>
    <rc><c>Si</c><c>   1</c></rc>
    <rc><c>Si</c><c>   1</c></rc>
    <rc><c>Si</c><c>   1</c></rc>
    <rc><c>Si</c><c>   1</c></rc>
    <rc><c>Si</c><c>   1</c></rc>
    <rc><c>Si</c><c>   1</c></rc>
    <rc><c>Si</c><c>   1</c></rc>
    <rc><c>Si</c><c>   1</c></rc>
    <rc><c>Si</c><c>   1</c></rc>
    <rc><c>Si</c><c>   1</c></rc>
    <rc><c>Si</c><c>   1</c></rc>
    <rc><c>Si</c><c>   1</c></rc>
    <rc><c>Si</c><c>   1</c></rc>
    <rc><c>Si</c><c>   1</c></rc>
    <rc><c>Si</c><c>   1</c></rc>
    <rc><c>Si</c><c>   1</c></rc>
    <rc><c>Si</c><c>   1</c></rc>
    <rc><c>Si</c><c>   1</c></rc>
    <rc><c>Si</c><c>   1</c></rc>
    <rc><c>Si</c><c>   1</c></rc>
    <rc><c>Si</c><c>   1</c></rc>
    <rc><c>Si</c><c>   1</c></rc>
   </set>
  </array>
  <array name="atomtypes" >
   <dimension dim="1">type</dimension>
   <field type="int">atomspertype</field>
   <field type="string">element</field>
   <field>mass</field>
   <field>valence</field>
   <field type="string">pseudopotential</field>
   <set>
    <rc><c>  64</c><c>Si</c><c>     28.08500000</c><c>      4.00000000</c><c>  PAW_PBE Si 05Jan2001                  </c></rc>
   </set>
  </array>
 </atominfo>
 <structure name="initialpos" >
  <crystal>
   <varray name="basis" >
    <v>      10.93252578       0.00000000       0.00000000 </v>
    <v>       0.00000000      10.93252578       0.00000000 </v>
    <v>       0.00000000       0.00000000      10.93252578 </v>
   </varray>
   <i name="volume">   1306.65679237 </i>
   <varray name="rec_basis" >
    <v>       0.09147017       0.00000000       0.00000000 </v>
    <v>       0.00000000       0.09147017       0.00000000 </v>
    <v>       0.00000000       0.00000000       0.09147017 </v>
   </varray>
  </crystal>
  <varray name="positions" >
   <v>       0.44024411       0.43750000       0.43750000 </v>
   <v>       0.93750000       0.43750000       0.43750000 </v>
   <v>       0.43750000       0.93750000       0.43750000 </v>
   <v>       0.93750000       0.93750000       0.43750000 </v>
   <v>       0.43750000       0.43750000       0.93750000 </v>
   <v>       0.93750000       0.43750000       0.93750000 </v>
   <v>       0.43750000       0.93750000       0.93750000 </v>
   <v>       0.93750000       0.93750000       0.93750000 </v>
   <v>       0.43750000       0.18750000       0.18750000 </v>
   <v>       0.93750000       0.18750000       0.18750000 </v>
   <v>       0.43750000       0.68750000       0.18750000 </v>
   <v>       0.93750000       0.68750000       0.18750000 </v>
   <v>       0.43750000       0.18750000       0.68750000 </v>
   <v>       0.93750000       0.18750000       0.68750000 </v>
   <v>       0.43750000       0.68750000       0.68750000 </v>
   <v>       0.93750000       0.68750000       0.68750000 </v>
   <v>       0.18750000       0.43750000       0.18750000 </v>
   <v>       0.68750000       0.43750000       0.18750000 </v>
   <v>       0.18750000       0.93750000       0.18750000 </v>
   <v>       0.68750000       0.93750000       0.18750000 </v>
   <v>       0.18750000       0.43750000       0.68750000 </v>
   <v>       0.68750000       0.43750000       0.68750000 </v>
   <v>       0.18750000       0.93750000       0.68750000 </v>
   <v>       0.68750000       0.93750000       0.68750000 </v>
   <v>       0.18750000       0.18750000       0.43750000 </v>
   <v>       0.68750000       0.18750000       0.43750000 </v>
   <v>       0.18750000       0.68750000       0.43750000 </v>
   <v>       0.68750000       0.68750000       0.43750000 </v>
   <v>       0.18750000       0.18750000       0.93750000 </v>
   <v>       0.68750000       0.18750000       0.93750000 </v>
   <v>       0.18750000       0.68750000       0.93750000 </v>
   <v>       0.68750000       0.68750000       0.93750000 </v>
   <v>       0.06250000       0.06250000       0.06250000 </v>
   <v>       0.56250000       0.06250000       0.06250000 </v>
   <v>       0.06250000       0.56250000       0.06250000 </v>
   <v>       0.56250000       0.56250000       0.06250000 </v>
   <v>       0.06250000       0.06250000       0.56250000 </v>
   <v>       0.56250000       0.06250000       0.56250000 </v>
   <v>       0.06250000       0.56250000       0.56250000 </v>
   <v>       0.56250000       0.56524411       0.56250000 </v>
   <v>       0.06250000       0.31250000       0.31250000 </v>
   <v>       0.56250000       0.31250000       0.31250000 </v>
   <v>       0.06250000       0.81250000       0.31250000 </v>
   <v>       0.56250000       0.81250000       0.31250000 </v>
   <v>       0.06250000       0.31250000       0.81250000 </v>
   <v>       0.56250000       0.31250000       0.81250000 </v>
   <v>       0.06250000       0.81250000       0.81250000 </v>
   <v>       0.56250000       0.81250000       0.81250000 </v>
   <v>       0.31250000       0.06250000       0.31250000 </v>
   <v>       0.81250000       0.06250000       0.31250000 </v>
   <v>       0.31250000       0.56250000       0.31250000 </v>
   <v>       0.81250000       0.56250000       0.31250000 </v>
   <v>       0.31250000       0.06250000       0.81250000 </v>
   <v>       0.81250000       0.06250000       0.81250000 </v>
   <v>       0.31250000       0.56250000       0.81250000 </v>
   <v>       0.81250000       0.56250000       0.81250000 </v>
   <v>       0.31250000       0.31250000       0.06250000 </v>
   <v>       0.81250000       0.31250000       0.06250000 </v>
   <v>       0.31250000       0.81250000       0.06250000 </v>
   <v>       0.81250000       0.81250000       0.06250000 </v>
   <v>       0.31250000       0.31250000       0.56250000 </v>
   <v>       0.81250000       0.31250000       0.56250000 </v>
   <v>       0.31250000       0.81250000       0.56250000 </v>
   <v>       0.81250000       0.81250000       0.56250000 </v>
  </varray>
 </structure>
 <calculation>
  <scstep>
   <time name="dav">    5.73    5.73</time>
   <time name="total">    5.99    6.01</time>
   <energy>
    <i name="alphaZ">    105.52440745 </i>
    <i name="ewald">  -7265.48678233 </i>
    <i name="hartreedc">   -361.70478288 </i>
    <i name="XCdc">   -597.75743820 </i>
    <i name="pawpsdc">   5639.92317535 </i>
    <i name="pawaedc">  -4513.95313856 </i>
    <i name="eentropy">     -0.00116081 </i>
    <i name="bandstr">    856.87971551 </i>
    <i name="atom">   6596.14994790 </i>
    <i name="e_fr_energy">    459.57394344 </i>
    <i name="e_wo_entrp">    459.57510425 </i>
    <i name="e_0_energy">    459.57452385 </i>
   </energy>
  </scstep>
  <scstep>
   <time name="dav">    6.31    6.32</time>
   <time name="total">    6.31    6.33</time>
   <energy>
    <i name="e_fr_energy">   -299.63624525 </i>
    <i name="e_wo_entrp">   -299.63624525 </i>
    <i name="e_0_energy">   -299.63624525 </i>
   </energy>
  </scstep>
  <scstep>
   <time name="dav">    6.37    6.38</time>
   <time name="total">    6.38    6.39</time>
   <energy>
    <i name="e_fr_energy">   -350.91528276 </i>
    <i name="e_wo_entrp">   -350.91528276 </i>
    <i name="e_0_energy">   -350.91528276 </i>
   </energy>
  </scstep>
  <scstep>
   <time name="dav">    6.35    6.36</time>
   <time name="total">    6.36    6.36</time>
   <energy>
    <i name="e_fr_energy">   -352.26829118 </i>
    <i name="e_wo_entrp">   -352.26829118 </i>
    <i name="e_0_energy">   -352.26829118 </i>
   </energy>
  </scstep>
  <scstep>
   <time name="dav">    6.30    6.31</time>
   <time name="total">    6.60    6.62</time>
   <energy>
    <i name="e_fr_energy">   -352.31469548 </i>
    <i name="e_wo_entrp">   -352.31469548 </i>
    <i name="e_0_energy">   -352.31469548 </i>
   </energy>
  </scstep>
  <scstep>
   <time name="dav">    6.18    6.18</time>
   <time name="total">    6.75    6.76</time>
   <energy>
    <i name="e_fr_energy">   -348.58644291 </i>
    <i name="e_wo_entrp">   -348.58644291 </i>
    <i name="e_0_energy">   -348.58644291 </i>
   </energy>
  </scstep>
  <scstep>
   <time name="dav">    6.12    6.13</time>
   <time name="total">    6.70    6.71</time>
   <energy>
    <i name="e_fr_energy">   -346.87377533 </i>
    <i name="e_wo_entrp">   -346.87377533 </i>
    <i name="e_0_energy">   -346.87377533 </i>
   </energy>
  </scstep>
  <scstep>
   <time name="dav">    6.28    6.29</time>
   <time name="total">    6.85    6.86</time>
   <energy>
    <i name="e_fr_energy">   -346.90005756 </i>
    <i name="e_wo_entrp">   -346.90005756 </i>
    <i name="e_0_energy">   -346.90005756 </i>
   </energy>
  </scstep>
  <scstep>
   <time name="dav">    6.44    6.44</time>
   <time name="total">    7.01    7.02</time>
   <energy>
    <i name="e_fr_energy">   -346.90677725 </i>
    <i name="e_wo_entrp">   -346.90677725 </i>
    <i name="e_0_energy">   -346.90677725 </i>
   </energy>
  </scstep>
  <scstep>
   <time name="dav">    5.98    6.00</time>
   <time name="total">    6.56    6.58</time>
   <energy>
    <i name="e_fr_energy">   -346.90881805 </i>
    <i name="e_wo_entrp">   -346.90881805 </i>
    <i name="e_0_energy">   -346.90881805 </i>
   </energy>
  </scstep>
  <scstep>
   <time name="dav">    6.22    6.23</time>
   <time name="total">    6.79    6.82</time>
   <energy>
    <i name="e_fr_energy">   -346.90880305 </i>
    <i name="e_wo_entrp">   -346.90880305 </i>
    <i name="e_0_energy">   -346.90880305 </i>
   </energy>
  </scstep>
  <scstep>
   <time name="dav">    6.31    6.32</time>
   <time name="total">    6.87    7.68</time>
   <energy>
    <i name="e_fr_energy">   -346.90881679 </i>
    <i name="e_wo_entrp">   -346.90881679 </i>
    <i name="e_0_energy">   -346.90881679 </i>
   </energy>
  </scstep>
  <scstep>
   <time name="dav">    6.22    6.24</time>
   <time name="total">    6.78    6.83</time>
   <energy>
    <i name="e_fr_energy">   -346.90881740 </i>
    <i name="e_wo_entrp">   -346.90881740 </i>
    <i name="e_0_energy">   -346.90881740 </i>
   </energy>
  </scstep>
  <scstep>
   <time name="dav">    6.30    6.31</time>
   <time name="total">    6.86    6.88</time>
   <energy>
    <i name="e_fr_energy">   -346.90881796 </i>
    <i name="e_wo_entrp">   -346.90881796 </i>
    <i name="e_0_energy">   -346.90881796 </i>
   </energy>
  </scstep>
  <scstep>
   <time name="dav">    5.38    5.39</time>
   <time name="total">    5.95    5.96</time>
   <energy>
    <i name="e_fr_energy">   -346.90881770 </i>
    <i name="e_wo_entrp">   -346.90881770 </i>
    <i name="e_0_energy">   -346.90881770 </i>
   </energy>
  </scstep>
  <scstep>
   <time name="dav">    4.31    4.31</time>
   <time name="total">    4.87    4.89</time>
   <energy>
    <i name="e_fr_energy">   -346.90881779 </i>
    <i name="e_wo_entrp">   -346.90881779 </i>
    <i name="e_0_energy">   -346.90881779 </i>
   </energy>
  </scstep>
  <scstep>
   <time name="dav">    4.24    4.24</time>
   <time name="total">    4.81    4.82</time>
   <energy>
    <i name="e_fr_energy">   -346.90881777 </i>
    <i name="e_wo_entrp">   -346.90881777 </i>
    <i name="e_0_energy">   -346.90881777 </i>
   </energy>
  </scstep>
  <scstep>
   <time name="dav">    4.26    4.27</time>
   <time name="total">    4.83    4.84</time>
   <energy>
    <i name="e_fr_energy">   -346.90881779 </i>
    <i name="e_wo_entrp">   -346.90881779 </i>
    <i name="e_0_energy">   -346.90881779 </i>
   </energy>
  </scstep>
  <scstep>
   <time name="dav">    4.25    4.25</time>
   <time name="total">    4.51    4.52</time>
   <energy>
    <i name="alphaZ">    105.52440745 </i>
    <i name="ewald">  -7265.48678233 </i>
    <i name="hartreedc">   -485.13368600 </i>
    <i name="XCdc">   -577.61275686 </i>
    <i name="pawpsdc">  27882.98620468 </i>
    <i name="pawaedc"> -26763.70388539 </i>
    <i name="eentropy">      0.00000000 </i>
    <i name="bandstr">    160.36773275 </i>
    <i name="atom">   6596.14994790 </i>
    <i name="e_fr_energy">   -346.90881779 </i>
    <i name="e_wo_entrp">   -346.90881779 </i>
    <i name="e_0_energy">   -346.90881779 </i>
   </energy>
  </scstep>
  <structure>
   <crystal>
    <varray name="basis" >
     <v>      10.93252578       0.00000000       0.00000000 </v>
     <v>       0.00000000      10.93252578       0.00000000 </v>
     <v>       0.00000000       0.00000000      10.93252578 </v>
    </varray>
    <i name="volume">   1306.65679237 </i>
    <varray name="rec_basis" >
     <v>       0.09147017       0.00000000       0.00000000 </v>
     <v>       0.00000000       0.09147017       0.00000000 </v>
     <v>       0.00000000       0.00000000       0.09147017 </v>
    </varray>
   </crystal>
   <varray name="positions" >
    <v>       0.44024411       0.43750000       0.43750000 </v>
    <v>       0.93750000       0.43750000       0.43750000 </v>
    <v>       0.43750000       0.93750000       0.43750000 </v>
    <v>       0.93750000       0.93750000       0.43750000 </v>
    <v>       0.43750000       0.43750000       0.93750000 </v>
    <v>       0.93750000       0.43750000       0.93750000 </v>
    <v>       0.43750000       0.93750000       0.93750000 </v>
    <v>       0.93750000       0.93750000       0.93750000 </v>
    <v>       0.43750000       0.18750000       0.18750000 </v>
    <v>       0.93750000       0.18750000       0.18750000 </v>
    <v>       0.43750000       0.68750000       0.18750000 </v>
    <v>       0.93750000       0.68750000       0.18750000 </v>
    <v>       0.43750000       0.18750000       0.68750000 </v>
    <v>       0.93750000       0.18750000       0.68750000 </v>
    <v>       0.43750000       0.68750000       0.68750000 </v>
    <v>       0.93750000       0.68750000       0.68750000 </v>
    <v>       0.18750000       0.43750000       0.18750000 </v>
    <v>       0.68750000       0.43750000       0.18750000 </v>
    <v>       0.18750000       0.93750000       0.18750000 </v>
    <v>       0.68750000       0.93750000       0.18750000 </v>
    <v>       0.18750000       0.43750000       0.68750000 </v>
    <v>       0.68750000       0.43750000       0.68750000 </v>
    <v>       0.18750000       0.93750000       0.68750000 </v>
    <v>       0.68750000       0.93750000       0.68750000 </v>
    <v>       0.18750000       0.18750000       0.43750000 </v>
    <v>       0.68750000       0.18750000       0.43750000 </v>
    <v>       0.18750000       0.68750000       0.43750000 </v>
    <v>       0.68750000       0.68750000       0.43750000 </v>
    <v>       0.18750000       0.18750000       0.93750000 </v>
    <v>       0.68750000       0.18750000       0.93750000 </v>
    <v>       0.18750000       0.68750000       0.93750000 </v>
    <v>       0.68750000       0.68750000       0.93750000 </v>
    <v>       0.06250000       0.06250000       0.06250000 </v>
    <v>       0.56250000       0.06250000       0.06250000 </v>
    <v>       0.06250000       0.56250000       0.06250000 </v>
    <v>       0.56250000       0.56250000       0.06250000 </v>
    <v>       0.06250000       0.06250000       0.56250000 </v>
    <v>       0.56250000       0.06250000       0.56250000 </v>
    <v>       0.06250000       0.56250000       0.56250000 </v>
    <v>       0.56250000       0.56524411       0.56250000 </v>
    <v>       0.06250000       0.31250000       0.31250000 </v>
    <v>       0.56250000       0.31250000       0.31250000 </v>
    <v>       0.06250000       0.81250000       0.31250000 </v>
    <v>       0.56250000       0.81250000       0.31250000 </v>
    <v>       0.06250000       0.31250000       0.81250000 </v>
    <v>       0.56250000       0.31250000       0.81250000 </v>
    <v>       0.06250000       0.81250000       0.81250000 </v>
    <v>       0.56250000       0.81250000       0.81250000 </v>
    <v>       0.31250000       0.06250000       0.31250000 </v>
    <v>       0.81250000       0.06250000       0.31250000 </v>
    <v>       0.31250000       0.56250000       0.31250000 </v>
    <v>       0.81250000       0.56250000       0.31250000 </v>
    <v>       0.31250000       0.06250000       0.81250000 </v>
    <v>       0.81250000       0.06250000       0.81250000 </v>
    <v>       0.31250000       0.56250000       0.81250000 </v>
    <v>       0.81250000       0.56250000       0.81250000 </v>
    <v>       0.31250000       0.31250000       0.06250000 </v>
    <v>       0.81250000       0.31250000       0.06250000 </v>
    <v>       0.31250000       0.81250000       0.06250000 </v>
    <v>       0.81250000       0.81250000       0.06250000 </v>
    <v>       0.31250000       0.31250000       0.56250000 </v>
    <v>       0.81250000       0.31250000       0.56250000 </v>
    <v>       0.31250000       0.81250000       0.56250000 </v>
    <v>       0.81250000       0.81250000       0.56250000 </v>
   </varray>
  </structure>
  <varray name="forces" >
   <v>      -0.32110058       0.09838026       0.06819447 </v>
   <v>       0.00143936      -0.00143248       0.00124425 </v>
   <v>       0.00221917      -0.00027709       0.00090035 </v>
   <v>       0.00046083       0.00066468       0.00073097 </v>
   <v>       0.00256528      -0.00142587       0.00087930 </v>
   <v>       0.00051120       0.00613176       0.00068102 </v>
   <v>      -0.01084741       0.00065735       0.00062055 </v>
   <v>       0.00132613      -0.00053550       0.00074106 </v>
   <v>      -0.01354794       0.00335351       0.00335161 </v>
   <v>      -0.00078175      -0.00030754       0.00097540 </v>
   <v>      -0.01401739       0.00121170      -0.00175208 </v>
   <v>      -0.00069617       0.00643953       0.00045021 </v>
   <v>      -0.01368107      -0.00293665       0.00357306 </v>
   <v>      -0.00060527       0.00037985       0.00089589 </v>
   <v>      -0.07899167       0.09291631       0.06344727 </v>
   <v>      -0.00094980      -0.00169795       0.00097851 </v>
   <v>       0.00496454       0.00349144       0.00492243 </v>
   <v>       0.00456287      -0.00419761      -0.00658649 </v>
   <v>       0.00027404      -0.00076872      -0.00261212 </v>
   <v>       0.00031451       0.00043538       0.00121315 </v>
   <v>       0.00476003       0.00124122      -0.00679267 </v>
   <v>      -0.05517266       0.09576497      -0.05512533 </v>
   <v>       0.00037119       0.00090103       0.00113568 </v>
   <v>       0.00012544      -0.00004548      -0.00275002 </v>
   <v>       0.00622896       0.00618074      -0.00327796 </v>
   <v>       0.00670965      -0.00597403      -0.00365867 </v>
   <v>       0.00655625      -0.00700972       0.00144614 </v>
   <v>       0.07191314       0.10146930      -0.06323409 </v>
   <v>       0.00176573      -0.00240078      -0.00098511 </v>
   <v>       0.00167256       0.00246228      -0.00083231 </v>
   <v>       0.00169131       0.00805454      -0.00044307 </v>
   <v>       0.00221835      -0.00334081      -0.00070231 </v>
   <v>      -0.00053461       0.00132855       0.00075963 </v>
   <v>       0.00621368       0.00049678       0.00067952 </v>
   <v>       0.00062251      -0.01089462       0.00061856 </v>
   <v>      -0.00148205       0.00252776       0.00093518 </v>
   <v>       0.00061582       0.00042744       0.00062867 </v>
   <v>      -0.00147537       0.00147408       0.00121397 </v>
   <v>      -0.00027523       0.00222970       0.00091363 </v>
   <v>       0.09066045      -0.32624884       0.05889559 </v>
   <v>      -0.00004757       0.00009870      -0.00277327 </v>
   <v>       0.09853480      -0.06045012      -0.06070390 </v>
   <v>       0.00083925       0.00042758       0.00121308 </v>
   <v>       0.00129123       0.00487640      -0.00691632 </v>
   <v>       0.00038555       0.00036387       0.00125569 </v>
   <v>      -0.00415386       0.00442845      -0.00647710 </v>
   <v>      -0.00076173       0.00026345      -0.00259695 </v>
   <v>       0.00341963       0.00512501       0.00496511 </v>
   <v>      -0.00167001      -0.00089012       0.00101825 </v>
   <v>       0.00044096      -0.00066095       0.00092627 </v>
   <v>       0.09051462      -0.07373298       0.05818483 </v>
   <v>      -0.00305366      -0.01379165       0.00367778 </v>
   <v>       0.00637066      -0.00069073       0.00045201 </v>
   <v>      -0.00030295      -0.00074481       0.00098544 </v>
   <v>       0.00131650      -0.01409944      -0.00186995 </v>
   <v>       0.00336019      -0.01346540       0.00332123 </v>
   <v>      -0.00327693       0.00227657      -0.00065167 </v>
   <v>       0.00252743       0.00172810      -0.00086711 </v>
   <v>       0.00800374       0.00170863      -0.00045824 </v>
   <v>      -0.00237868       0.00177333      -0.00097551 </v>
   <v>       0.09866429       0.06660581      -0.05839476 </v>
   <v>      -0.00582844       0.00655242      -0.00359891 </v>
   <v>      -0.00714969       0.00670873       0.00153497 </v>
   <v>       0.00635065       0.00646270      -0.00352480 </v>
  </varray>
  <varray name="stress" >
   <v>      -0.00433019      -0.00560742      -0.34406144 </v>
   <v>      -0.00560742      -0.00472396       0.32534115 </v>
   <v>      -0.34406142       0.32534115       0.00967311 </v>
  </varray>
  <energy>
   <i name="e_fr_energy">   -346.90881779 </i>
   <i name="e_wo_entrp">   -346.90881779 </i>
   <i name="e_0_energy">      0.00000000 </i>
  </energy>
  <time name="totalsc">  129.46  130.58</time>
  <eigenvalues>
   <array>
    <dimension dim="1">band</dimension>
    <dimension dim="2">kpoint</dimension>
    <dimension dim="3">spin</dimension>
    <field>eigene</field>
    <field>occ</field>
    <set>
     <set comment="spin 1">
      <set comment="kpoint 1">
       <r>   -5.9931    1.0000 </r>
       <r>   -5.4672    1.0000 </r>
       <r>   -5.4647    1.0000 </r>
       <r>   -5.4623    1.0000 </r>
       <r>   -4.9680    1.0000 </r>
       <r>   -4.9655    1.0000 </r>
       <r>   -4.9629    1.0000 </r>
       <r>   -4.5322    1.0000 </r>
       <r>   -4.4349    1.0000 </r>
       <r>   -4.4323    1.0000 </r>
       <r>   -4.4300    1.0000 </r>
       <r>   -4.0228    1.0000 </r>
       <r>   -4.0182    1.0000 </r>
       <r>   -4.0164    1.0000 </r>
       <r>   -4.0163    1.0000 </r>
       <r>   -4.0146    1.0000 </r>
       <r>   -4.0102    1.0000 </r>
       <r>   -3.8282    1.0000 </r>
       <r>   -3.8243    1.0000 </r>
       <r>   -3.8203    1.0000 </r>
       <r>   -3.3313    1.0000 </r>
       <r>   -3.3283    1.0000 </r>
       <r>   -3.3254    1.0000 </r>
       <r>   -2.9627    1.0000 </r>
       <r>   -2.9590    1.0000 </r>
       <r>   -2.9557    1.0000 </r>
       <r>   -2.7979    1.0000 </r>
       <r>   -2.7936    1.0000 </r>
       <r>   -2.7909    1.0000 </r>
       <r>   -2.7908    1.0000 </r>
       <r>   -2.7881    1.0000 </r>
       <r>   -2.7836    1.0000 </r>
       <r>   -1.2583    1.0000 </r>
       <r>   -1.2521    1.0000 </r>
       <r>   -1.2487    1.0000 </r>
       <r>   -1.2486    1.0000 </r>
       <r>   -1.2456    1.0000 </r>
       <r>   -1.2399    1.0000 </r>
       <r>   -1.1544    1.0000 </r>
       <r>   -1.1511    1.0000 </r>
       <r>   -1.1476    1.0000 </r>
       <r>   -1.0376    1.0000 </r>
       <r>   -1.0327    1.0000 </r>
       <r>   -1.0276    1.0000 </r>
       <r>   -0.9481    1.0000 </r>
       <r>   -0.9467    1.0000 </r>
       <r>   -0.9454    1.0000 </r>
       <r>   -0.2446    1.0000 </r>
       <r>   -0.1689    1.0000 </r>
       <r>   -0.1634    1.0000 </r>
       <r>   -0.1603    1.0000 </r>
       <r>   -0.1600    1.0000 </r>
       <r>   -0.1569    1.0000 </r>
       <r>   -0.1512    1.0000 </r>
       <r>    0.7108    1.0000 </r>
       <r>    0.7143    1.0000 </r>
       <r>    0.7178    1.0000 </r>
       <r>    1.0434    1.0000 </r>
       <r>    1.0471    1.0000 </r>
       <r>    1.0508    1.0000 </r>
       <r>    1.6519    1.0000 </r>
       <r>    1.6551    1.0000 </r>
       <r>    1.6568    1.0000 </r>
       <r>    1.6573    1.0000 </r>
       <r>    1.6587    1.0000 </r>
       <r>    1.6616    1.0000 </r>
       <r>    1.7138    1.0000 </r>
       <r>    1.7161    1.0000 </r>
       <r>    1.7187    1.0000 </r>
       <r>    2.2660    1.0000 </r>
       <r>    2.2677    1.0000 </r>
       <r>    2.2694    1.0000 </r>
       <r>    2.3654    1.0000 </r>
       <r>    2.3675    1.0000 </r>
       <r>    2.3709    1.0000 </r>
       <r>    2.3711    1.0000 </r>
       <r>    2.3739    1.0000 </r>
       <r>    2.3759    1.0000 </r>
       <r>    2.4213    1.0000 </r>
       <r>    2.4251    1.0000 </r>
       <r>    2.4290    1.0000 </r>
       <r>    2.7289    1.0000 </r>
       <r>    2.7337    1.0000 </r>
       <r>    2.7349    1.0000 </r>
       <r>    2.7350    1.0000 </r>
       <r>    2.7362    1.0000 </r>
       <r>    2.7409    1.0000 </r>
       <r>    2.9967    1.0000 </r>
       <r>    2.9995    1.0000 </r>
       <r>    3.0016    1.0000 </r>
       <r>    3.0097    1.0000 </r>
       <r>    3.0139    1.0000 </r>
       <r>    3.0170    1.0000 </r>
       <r>    3.3593    1.0000 </r>
       <r>    3.3622    1.0000 </r>
       <r>    3.3648    1.0000 </r>
       <r>    3.3819    1.0000 </r>
       <r>    3.3845    1.0000 </r>
       <r>    3.3867    1.0000 </r>
       <r>    3.4633    1.0000 </r>
       <r>    3.4666    1.0000 </r>
       <r>    3.4700    1.0000 </r>
       <r>    3.7363    1.0000 </r>
       <r>    3.7391    1.0000 </r>
       <r>    3.7412    1.0000 </r>
       <r>    3.7414    1.0000 </r>
       <r>    3.7436    1.0000 </r>
       <r>    3.7460    1.0000 </r>
       <r>    3.7771    1.0000 </r>
       <r>    3.7804    1.0000 </r>
       <r>    3.7850    1.0000 </r>
       <r>    4.0403    1.0000 </r>
       <r>    4.0951    1.0000 </r>
       <r>    4.0978    1.0000 </r>
       <r>    4.1013    1.0000 </r>
       <r>    4.3372    1.0000 </r>
       <r>    4.3410    1.0000 </r>
       <r>    4.3447    1.0000 </r>
       <r>    4.4044    1.0000 </r>
       <r>    4.4057    1.0000 </r>
       <r>    4.4075    1.0000 </r>
       <r>    4.5588    1.0000 </r>
       <r>    4.5670    1.0000 </r>
       <r>    4.8652    1.0000 </r>
       <r>    4.8699    1.0000 </r>
       <r>    4.8753    1.0000 </r>
       <r>    5.3451    1.0000 </r>
       <r>    5.3544    1.0000 </r>
       <r>    6.5598    0.0000 </r>
       <r>    6.5634    0.0000 </r>
       <r>    6.5670    0.0000 </r>
       <r>    6.9992    0.0000 </r>
       <r>    7.0045    0.0000 </r>
       <r>    7.0096    0.0000 </r>
       <r>    7.2337    0.0000 </r>
       <r>    7.4862    0.0000 </r>
       <r>    7.4907    0.0000 </r>
       <r>    7.4952    0.0000 </r>
       <r>    7.6159    0.0000 </r>
       <r>    7.6198    0.0000 </r>
       <r>    7.6233    0.0000 </r>
       <r>    7.7769    0.0000 </r>
       <r>    7.7801    0.0000 </r>
       <r>    7.7825    0.0000 </r>
       <r>    7.7978    0.0000 </r>
       <r>    7.8010    0.0000 </r>
       <r>    7.8050    0.0000 </r>
       <r>    8.0240    0.0000 </r>
       <r>    8.0292    0.0000 </r>
       <r>    8.0306    0.0000 </r>
       <r>    8.0307    0.0000 </r>
       <r>    8.0321    0.0000 </r>
       <r>    8.0365    0.0000 </r>
       <r>    8.0812    0.0000 </r>
       <r>    8.2917    0.0000 </r>
       <r>    8.2950    0.0000 </r>
       <r>    8.2983    0.0000 </r>
       <r>    8.4948    0.0000 </r>
       <r>    8.5007    0.0000 </r>
       <r>    8.5019    0.0000 </r>
       <r>    8.5033    0.0000 </r>
       <r>    8.5052    0.0000 </r>
       <r>    8.5208    0.0000 </r>
       <r>    8.5482    0.0000 </r>
      </set>
      <set comment="kpoint 2">
       <r>   -5.9931    1.0000 </r>
       <r>   -5.4691    1.0000 </r>
       <r>   -5.4632    1.0000 </r>
       <r>   -5.4623    1.0000 </r>
       <r>   -4.9695    1.0000 </r>
       <r>   -4.9639    1.0000 </r>
       <r>   -4.9629    1.0000 </r>
       <r>   -4.5312    1.0000 </r>
       <r>   -4.4362    1.0000 </r>
       <r>   -4.4307    1.0000 </r>
       <r>   -4.4293    1.0000 </r>
       <r>   -4.0261    1.0000 </r>
       <r>   -4.0175    1.0000 </r>
       <r>   -4.0161    1.0000 </r>
       <r>   -4.0159    1.0000 </r>
       <r>   -4.0136    1.0000 </r>
       <r>   -4.0120    1.0000 </r>
       <r>   -3.8287    1.0000 </r>
       <r>   -3.8244    1.0000 </r>
       <r>   -3.8217    1.0000 </r>
       <r>   -3.3305    1.0000 </r>
       <r>   -3.3260    1.0000 </r>
       <r>   -3.3230    1.0000 </r>
       <r>   -2.9632    1.0000 </r>
       <r>   -2.9591    1.0000 </r>
       <r>   -2.9562    1.0000 </r>
       <r>   -2.7994    1.0000 </r>
       <r>   -2.7918    1.0000 </r>
       <r>   -2.7911    1.0000 </r>
       <r>   -2.7906    1.0000 </r>
       <r>   -2.7875    1.0000 </r>
       <r>   -2.7862    1.0000 </r>
       <r>   -1.2546    1.0000 </r>
       <r>   -1.2506    1.0000 </r>
       <r>   -1.2488    1.0000 </r>
       <r>   -1.2483    1.0000 </r>
       <r>   -1.2447    1.0000 </r>
       <r>   -1.2430    1.0000 </r>
       <r>   -1.1532    1.0000 </r>
       <r>   -1.1507    1.0000 </r>
       <r>   -1.1469    1.0000 </r>
       <r>   -1.0336    1.0000 </r>
       <r>   -1.0326    1.0000 </r>
       <r>   -1.0269    1.0000 </r>
       <r>   -0.9588    1.0000 </r>
       <r>   -0.9481    1.0000 </r>
       <r>   -0.9455    1.0000 </r>
       <r>   -0.2481    1.0000 </r>
       <r>   -0.1644    1.0000 </r>
       <r>   -0.1615    1.0000 </r>
       <r>   -0.1599    1.0000 </r>
       <r>   -0.1596    1.0000 </r>
       <r>   -0.1555    1.0000 </r>
       <r>   -0.1513    1.0000 </r>
       <r>    0.7062    1.0000 </r>
       <r>    0.7133    1.0000 </r>
       <r>    0.7166    1.0000 </r>
       <r>    1.0444    1.0000 </r>
       <r>    1.0470    1.0000 </r>
       <r>    1.0500    1.0000 </r>
       <r>    1.6530    1.0000 </r>
       <r>    1.6546    1.0000 </r>
       <r>    1.6562    1.0000 </r>
       <r>    1.6581    1.0000 </r>
       <r>    1.6595    1.0000 </r>
       <r>    1.6610    1.0000 </r>
       <r>    1.7150    1.0000 </r>
       <r>    1.7170    1.0000 </r>
       <r>    1.7196    1.0000 </r>
       <r>    2.2644    1.0000 </r>
       <r>    2.2655    1.0000 </r>
       <r>    2.2678    1.0000 </r>
       <r>    2.3676    1.0000 </r>
       <r>    2.3685    1.0000 </r>
       <r>    2.3708    1.0000 </r>
       <r>    2.3724    1.0000 </r>
       <r>    2.3754    1.0000 </r>
       <r>    2.3777    1.0000 </r>
       <r>    2.4248    1.0000 </r>
       <r>    2.4272    1.0000 </r>
       <r>    2.4297    1.0000 </r>
       <r>    2.7290    1.0000 </r>
       <r>    2.7319    1.0000 </r>
       <r>    2.7348    1.0000 </r>
       <r>    2.7360    1.0000 </r>
       <r>    2.7374    1.0000 </r>
       <r>    2.7397    1.0000 </r>
       <r>    2.9986    1.0000 </r>
       <r>    3.0010    1.0000 </r>
       <r>    3.0015    1.0000 </r>
       <r>    3.0121    1.0000 </r>
       <r>    3.0146    1.0000 </r>
       <r>    3.0175    1.0000 </r>
       <r>    3.3552    1.0000 </r>
       <r>    3.3616    1.0000 </r>
       <r>    3.3632    1.0000 </r>
       <r>    3.3781    1.0000 </r>
       <r>    3.3816    1.0000 </r>
       <r>    3.3846    1.0000 </r>
       <r>    3.4655    1.0000 </r>
       <r>    3.4676    1.0000 </r>
       <r>    3.4701    1.0000 </r>
       <r>    3.7304    1.0000 </r>
       <r>    3.7346    1.0000 </r>
       <r>    3.7405    1.0000 </r>
       <r>    3.7416    1.0000 </r>
       <r>    3.7419    1.0000 </r>
       <r>    3.7433    1.0000 </r>
       <r>    3.7794    1.0000 </r>
       <r>    3.7817    1.0000 </r>
       <r>    3.7846    1.0000 </r>
       <r>    4.0368    1.0000 </r>
       <r>    4.0979    1.0000 </r>
       <r>    4.1007    1.0000 </r>
       <r>    4.1018    1.0000 </r>
       <r>    4.3404    1.0000 </r>
       <r>    4.3427    1.0000 </r>
       <r>    4.3458    1.0000 </r>
       <r>    4.3953    1.0000 </r>
       <r>    4.4034    1.0000 </r>
       <r>    4.4053    1.0000 </r>
       <r>    4.5617    1.0000 </r>
       <r>    4.5664    1.0000 </r>
       <r>    4.8693    1.0000 </r>
       <r>    4.8723    1.0000 </r>
       <r>    4.8765    1.0000 </r>
       <r>    5.3492    1.0000 </r>
       <r>    5.3547    1.0000 </r>
       <r>    6.5619    0.0000 </r>
       <r>    6.5657    0.0000 </r>
       <r>    6.5675    0.0000 </r>
       <r>    7.0017    0.0000 </r>
       <r>    7.0062    0.0000 </r>
       <r>    7.0077    0.0000 </r>
       <r>    7.2352    0.0000 </r>
       <r>    7.4893    0.0000 </r>
       <r>    7.4931    0.0000 </r>
       <r>    7.4945    0.0000 </r>
       <r>    7.6153    0.0000 </r>
       <r>    7.6175    0.0000 </r>
       <r>    7.6218    0.0000 </r>
       <r>    7.7779    0.0000 </r>
       <r>    7.7801    0.0000 </r>
       <r>    7.7826    0.0000 </r>
       <r>    7.7993    0.0000 </r>
       <r>    7.8026    0.0000 </r>
       <r>    7.8042    0.0000 </r>
       <r>    8.0226    0.0000 </r>
       <r>    8.0236    0.0000 </r>
       <r>    8.0298    0.0000 </r>
       <r>    8.0306    0.0000 </r>
       <r>    8.0314    0.0000 </r>
       <r>    8.0348    0.0000 </r>
       <r>    8.0835    0.0000 </r>
       <r>    8.2931    0.0000 </r>
       <r>    8.2954    0.0000 </r>
       <r>    8.2972    0.0000 </r>
       <r>    8.4953    0.0000 </r>
       <r>    8.4987    0.0000 </r>
       <r>    8.5016    0.0000 </r>
       <r>    8.5043    0.0000 </r>
       <r>    8.5079    0.0000 </r>
       <r>    8.5225    0.0000 </r>
       <r>    8.5391    0.0000 </r>
      </set>
      <set comment="kpoint 3">
       <r>   -5.9932    1.0000 </r>
       <r>   -5.4672    1.0000 </r>
       <r>   -5.4661    1.0000 </r>
       <r>   -5.4605    1.0000 </r>
       <r>   -4.9681    1.0000 </r>
       <r>   -4.9670    1.0000 </r>
       <r>   -4.9615    1.0000 </r>
       <r>   -4.5333    1.0000 </r>
       <r>   -4.4353    1.0000 </r>
       <r>   -4.4340    1.0000 </r>
       <r>   -4.4289    1.0000 </r>
       <r>   -4.0210    1.0000 </r>
       <r>   -4.0192    1.0000 </r>
       <r>   -4.0168    1.0000 </r>
       <r>   -4.0166    1.0000 </r>
       <r>   -4.0152    1.0000 </r>
       <r>   -4.0069    1.0000 </r>
       <r>   -3.8270    1.0000 </r>
       <r>   -3.8244    1.0000 </r>
       <r>   -3.8195    1.0000 </r>
       <r>   -3.3336    1.0000 </r>
       <r>   -3.3306    1.0000 </r>
       <r>   -3.3261    1.0000 </r>
       <r>   -2.9621    1.0000 </r>
       <r>   -2.9589    1.0000 </r>
       <r>   -2.9554    1.0000 </r>
       <r>   -2.7955    1.0000 </r>
       <r>   -2.7942    1.0000 </r>
       <r>   -2.7911    1.0000 </r>
       <r>   -2.7906    1.0000 </r>
       <r>   -2.7898    1.0000 </r>
       <r>   -2.7819    1.0000 </r>
       <r>   -1.2552    1.0000 </r>
       <r>   -1.2529    1.0000 </r>
       <r>   -1.2490    1.0000 </r>
       <r>   -1.2485    1.0000 </r>
       <r>   -1.2468    1.0000 </r>
       <r>   -1.2432    1.0000 </r>
       <r>   -1.1552    1.0000 </r>
       <r>   -1.1515    1.0000 </r>
       <r>   -1.1490    1.0000 </r>
       <r>   -1.0382    1.0000 </r>
       <r>   -1.0330    1.0000 </r>
       <r>   -1.0319    1.0000 </r>
       <r>   -0.9481    1.0000 </r>
       <r>   -0.9455    1.0000 </r>
       <r>   -0.9344    1.0000 </r>
       <r>   -0.2410    1.0000 </r>
       <r>   -0.1687    1.0000 </r>
       <r>   -0.1648    1.0000 </r>
       <r>   -0.1607    1.0000 </r>
       <r>   -0.1604    1.0000 </r>
       <r>   -0.1587    1.0000 </r>
       <r>   -0.1559    1.0000 </r>
       <r>    0.7120    1.0000 </r>
       <r>    0.7153    1.0000 </r>
       <r>    0.7225    1.0000 </r>
       <r>    1.0442    1.0000 </r>
       <r>    1.0472    1.0000 </r>
       <r>    1.0497    1.0000 </r>
       <r>    1.6527    1.0000 </r>
       <r>    1.6544    1.0000 </r>
       <r>    1.6560    1.0000 </r>
       <r>    1.6579    1.0000 </r>
       <r>    1.6593    1.0000 </r>
       <r>    1.6607    1.0000 </r>
       <r>    1.7124    1.0000 </r>
       <r>    1.7152    1.0000 </r>
       <r>    1.7175    1.0000 </r>
       <r>    2.2678    1.0000 </r>
       <r>    2.2699    1.0000 </r>
       <r>    2.2710    1.0000 </r>
       <r>    2.3634    1.0000 </r>
       <r>    2.3661    1.0000 </r>
       <r>    2.3695    1.0000 </r>
       <r>    2.3711    1.0000 </r>
       <r>    2.3732    1.0000 </r>
       <r>    2.3742    1.0000 </r>
       <r>    2.4202    1.0000 </r>
       <r>    2.4231    1.0000 </r>
       <r>    2.4254    1.0000 </r>
       <r>    2.7305    1.0000 </r>
       <r>    2.7324    1.0000 </r>
       <r>    2.7339    1.0000 </r>
       <r>    2.7351    1.0000 </r>
       <r>    2.7380    1.0000 </r>
       <r>    2.7408    1.0000 </r>
       <r>    2.9965    1.0000 </r>
       <r>    2.9977    1.0000 </r>
       <r>    2.9999    1.0000 </r>
       <r>    3.0099    1.0000 </r>
       <r>    3.0126    1.0000 </r>
       <r>    3.0148    1.0000 </r>
       <r>    3.3612    1.0000 </r>
       <r>    3.3624    1.0000 </r>
       <r>    3.3674    1.0000 </r>
       <r>    3.3841    1.0000 </r>
       <r>    3.3875    1.0000 </r>
       <r>    3.3911    1.0000 </r>
       <r>    3.4630    1.0000 </r>
       <r>    3.4656    1.0000 </r>
       <r>    3.4679    1.0000 </r>
       <r>    3.7393    1.0000 </r>
       <r>    3.7407    1.0000 </r>
       <r>    3.7410    1.0000 </r>
       <r>    3.7421    1.0000 </r>
       <r>    3.7480    1.0000 </r>
       <r>    3.7521    1.0000 </r>
       <r>    3.7767    1.0000 </r>
       <r>    3.7795    1.0000 </r>
       <r>    3.7823    1.0000 </r>
       <r>    4.0445    1.0000 </r>
       <r>    4.0942    1.0000 </r>
       <r>    4.0950    1.0000 </r>
       <r>    4.0981    1.0000 </r>
       <r>    4.3364    1.0000 </r>
       <r>    4.3395    1.0000 </r>
       <r>    4.3416    1.0000 </r>
       <r>    4.4060    1.0000 </r>
       <r>    4.4081    1.0000 </r>
       <r>    4.4174    1.0000 </r>
       <r>    4.5593    1.0000 </r>
       <r>    4.5641    1.0000 </r>
       <r>    4.8639    1.0000 </r>
       <r>    4.8677    1.0000 </r>
       <r>    4.8707    1.0000 </r>
       <r>    5.3448    1.0000 </r>
       <r>    5.3500    1.0000 </r>
       <r>    6.5592    0.0000 </r>
       <r>    6.5611    0.0000 </r>
       <r>    6.5651    0.0000 </r>
       <r>    7.0012    0.0000 </r>
       <r>    7.0027    0.0000 </r>
       <r>    7.0073    0.0000 </r>
       <r>    7.2323    0.0000 </r>
       <r>    7.4868    0.0000 </r>
       <r>    7.4883    0.0000 </r>
       <r>    7.4924    0.0000 </r>
       <r>    7.6172    0.0000 </r>
       <r>    7.6216    0.0000 </r>
       <r>    7.6239    0.0000 </r>
       <r>    7.7769    0.0000 </r>
       <r>    7.7792    0.0000 </r>
       <r>    7.7819    0.0000 </r>
       <r>    7.7985    0.0000 </r>
       <r>    7.7999    0.0000 </r>
       <r>    7.8033    0.0000 </r>
       <r>    8.0261    0.0000 </r>
       <r>    8.0299    0.0000 </r>
       <r>    8.0306    0.0000 </r>
       <r>    8.0315    0.0000 </r>
       <r>    8.0371    0.0000 </r>
       <r>    8.0382    0.0000 </r>
       <r>    8.0791    0.0000 </r>
       <r>    8.2928    0.0000 </r>
       <r>    8.2946    0.0000 </r>
       <r>    8.2970    0.0000 </r>
       <r>    8.4952    0.0000 </r>
       <r>    8.4996    0.0000 </r>
       <r>    8.5015    0.0000 </r>
       <r>    8.5049    0.0000 </r>
       <r>    8.5089    0.0000 </r>
       <r>    8.5180    0.0000 </r>
       <r>    8.5427    0.0000 </r>
      </set>
      <set comment="kpoint 4">
       <r>   -5.9931    1.0000 </r>
       <r>   -5.4681    1.0000 </r>
       <r>   -5.4647    1.0000 </r>
       <r>   -5.4614    1.0000 </r>
       <r>   -4.9689    1.0000 </r>
       <r>   -4.9654    1.0000 </r>
       <r>   -4.9621    1.0000 </r>
       <r>   -4.5321    1.0000 </r>
       <r>   -4.4355    1.0000 </r>
       <r>   -4.4324    1.0000 </r>
       <r>   -4.4294    1.0000 </r>
       <r>   -4.0255    1.0000 </r>
       <r>   -4.0183    1.0000 </r>
       <r>   -4.0163    1.0000 </r>
       <r>   -4.0163    1.0000 </r>
       <r>   -4.0144    1.0000 </r>
       <r>   -4.0076    1.0000 </r>
       <r>   -3.8282    1.0000 </r>
       <r>   -3.8244    1.0000 </r>
       <r>   -3.8202    1.0000 </r>
       <r>   -3.3314    1.0000 </r>
       <r>   -3.3283    1.0000 </r>
       <r>   -3.3252    1.0000 </r>
       <r>   -2.9627    1.0000 </r>
       <r>   -2.9591    1.0000 </r>
       <r>   -2.9557    1.0000 </r>
       <r>   -2.7994    1.0000 </r>
       <r>   -2.7926    1.0000 </r>
       <r>   -2.7909    1.0000 </r>
       <r>   -2.7909    1.0000 </r>
       <r>   -2.7890    1.0000 </r>
       <r>   -2.7821    1.0000 </r>
       <r>   -1.2571    1.0000 </r>
       <r>   -1.2497    1.0000 </r>
       <r>   -1.2486    1.0000 </r>
       <r>   -1.2486    1.0000 </r>
       <r>   -1.2476    1.0000 </r>
       <r>   -1.2412    1.0000 </r>
       <r>   -1.1545    1.0000 </r>
       <r>   -1.1510    1.0000 </r>
       <r>   -1.1479    1.0000 </r>
       <r>   -1.0375    1.0000 </r>
       <r>   -1.0328    1.0000 </r>
       <r>   -1.0276    1.0000 </r>
       <r>   -0.9522    1.0000 </r>
       <r>   -0.9468    1.0000 </r>
       <r>   -0.9411    1.0000 </r>
       <r>   -0.2446    1.0000 </r>
       <r>   -0.1684    1.0000 </r>
       <r>   -0.1607    1.0000 </r>
       <r>   -0.1602    1.0000 </r>
       <r>   -0.1601    1.0000 </r>
       <r>   -0.1596    1.0000 </r>
       <r>   -0.1517    1.0000 </r>
       <r>    0.7099    1.0000 </r>
       <r>    0.7143    1.0000 </r>
       <r>    0.7186    1.0000 </r>
       <r>    1.0434    1.0000 </r>
       <r>    1.0471    1.0000 </r>
       <r>    1.0507    1.0000 </r>
       <r>    1.6536    1.0000 </r>
       <r>    1.6547    1.0000 </r>
       <r>    1.6558    1.0000 </r>
       <r>    1.6583    1.0000 </r>
       <r>    1.6591    1.0000 </r>
       <r>    1.6598    1.0000 </r>
       <r>    1.7140    1.0000 </r>
       <r>    1.7161    1.0000 </r>
       <r>    1.7187    1.0000 </r>
       <r>    2.2656    1.0000 </r>
       <r>    2.2676    1.0000 </r>
       <r>    2.2699    1.0000 </r>
       <r>    2.3652    1.0000 </r>
       <r>    2.3684    1.0000 </r>
       <r>    2.3706    1.0000 </r>
       <r>    2.3713    1.0000 </r>
       <r>    2.3733    1.0000 </r>
       <r>    2.3761    1.0000 </r>
       <r>    2.4221    1.0000 </r>
       <r>    2.4255    1.0000 </r>
       <r>    2.4279    1.0000 </r>
       <r>    2.7286    1.0000 </r>
       <r>    2.7340    1.0000 </r>
       <r>    2.7346    1.0000 </r>
       <r>    2.7353    1.0000 </r>
       <r>    2.7359    1.0000 </r>
       <r>    2.7411    1.0000 </r>
       <r>    2.9973    1.0000 </r>
       <r>    2.9994    1.0000 </r>
       <r>    3.0008    1.0000 </r>
       <r>    3.0100    1.0000 </r>
       <r>    3.0135    1.0000 </r>
       <r>    3.0173    1.0000 </r>
       <r>    3.3577    1.0000 </r>
       <r>    3.3621    1.0000 </r>
       <r>    3.3655    1.0000 </r>
       <r>    3.3806    1.0000 </r>
       <r>    3.3844    1.0000 </r>
       <r>    3.3888    1.0000 </r>
       <r>    3.4636    1.0000 </r>
       <r>    3.4666    1.0000 </r>
       <r>    3.4697    1.0000 </r>
       <r>    3.7333    1.0000 </r>
       <r>    3.7394    1.0000 </r>
       <r>    3.7410    1.0000 </r>
       <r>    3.7415    1.0000 </r>
       <r>    3.7431    1.0000 </r>
       <r>    3.7491    1.0000 </r>
       <r>    3.7775    1.0000 </r>
       <r>    3.7805    1.0000 </r>
       <r>    3.7845    1.0000 </r>
       <r>    4.0406    1.0000 </r>
       <r>    4.0958    1.0000 </r>
       <r>    4.0981    1.0000 </r>
       <r>    4.1000    1.0000 </r>
       <r>    4.3376    1.0000 </r>
       <r>    4.3410    1.0000 </r>
       <r>    4.3442    1.0000 </r>
       <r>    4.4019    1.0000 </r>
       <r>    4.4057    1.0000 </r>
       <r>    4.4102    1.0000 </r>
       <r>    4.5588    1.0000 </r>
       <r>    4.5671    1.0000 </r>
       <r>    4.8658    1.0000 </r>
       <r>    4.8699    1.0000 </r>
       <r>    4.8745    1.0000 </r>
       <r>    5.3451    1.0000 </r>
       <r>    5.3544    1.0000 </r>
       <r>    6.5603    0.0000 </r>
       <r>    6.5633    0.0000 </r>
       <r>    6.5666    0.0000 </r>
       <r>    7.0012    0.0000 </r>
       <r>    7.0044    0.0000 </r>
       <r>    7.0077    0.0000 </r>
       <r>    7.2338    0.0000 </r>
       <r>    7.4876    0.0000 </r>
       <r>    7.4907    0.0000 </r>
       <r>    7.4939    0.0000 </r>
       <r>    7.6158    0.0000 </r>
       <r>    7.6196    0.0000 </r>
       <r>    7.6233    0.0000 </r>
       <r>    7.7789    0.0000 </r>
       <r>    7.7801    0.0000 </r>
       <r>    7.7808    0.0000 </r>
       <r>    7.7993    0.0000 </r>
       <r>    7.8009    0.0000 </r>
       <r>    7.8032    0.0000 </r>
       <r>    8.0225    0.0000 </r>
       <r>    8.0278    0.0000 </r>
       <r>    8.0305    0.0000 </r>
       <r>    8.0307    0.0000 </r>
       <r>    8.0334    0.0000 </r>
       <r>    8.0381    0.0000 </r>
       <r>    8.0813    0.0000 </r>
       <r>    8.2928    0.0000 </r>
       <r>    8.2949    0.0000 </r>
       <r>    8.2971    0.0000 </r>
       <r>    8.4939    0.0000 </r>
       <r>    8.5010    0.0000 </r>
       <r>    8.5017    0.0000 </r>
       <r>    8.5034    0.0000 </r>
       <r>    8.5073    0.0000 </r>
       <r>    8.5146    0.0000 </r>
       <r>    8.5392    0.0000 </r>
      </set>
     </set>
    </set>
   </array>
  </eigenvalues>
  <separator name="orbital magnetization" >
   <v name="MAGDIPOLOUT">      0.00000000      0.00000000      0.00000000</v>
  </separator>
  <dos>
   <i name="efermi">      5.59965453 </i>
   <total>
    <array>
     <dimension dim="1">gridpoints</dimension>
     <dimension dim="2">spin</dimension>
     <field>energy</field>
     <field>total</field>
     <field>integrated</field>
     <set>
      <set comment="spin 1">
       <r>    -6.7203     0.0000     0.0000 </r>
       <r>    -6.6670     0.0000     0.0000 </r>
       <r>    -6.6136     0.0000     0.0000 </r>
       <r>    -6.5603     0.0000     0.0000 </r>
       <r>    -6.5070     0.0000     0.0000 </r>
       <r>    -6.4537     0.0000     0.0000 </r>
       <r>    -6.4004     0.0000     0.0000 </r>
       <r>    -6.3470     0.0000     0.0000 </r>
       <r>    -6.2937     0.0000     0.0000 </r>
       <r>    -6.2404     0.0000     0.0000 </r>
       <r>    -6.1871     0.0000     0.0000 </r>
       <r>    -6.1338     0.0013     0.0001 </r>
       <r>    -6.0805     0.2524     0.0135 </r>
       <r>    -6.0271     6.0540     0.3363 </r>
       <r>    -5.9738    20.2375     1.4154 </r>
       <r>    -5.9205    10.2166     1.9601 </r>
       <r>    -5.8672     0.7416     1.9996 </r>
       <r>    -5.8139     0.0069     2.0000 </r>
       <r>    -5.7605     0.0000     2.0000 </r>
       <r>    -5.7072     0.0000     2.0000 </r>
       <r>    -5.6539     0.0000     2.0000 </r>
       <r>    -5.6006     0.0072     2.0004 </r>
       <r>    -5.5473     1.1149     2.0598 </r>
       <r>    -5.4939    21.9515     3.2302 </r>
       <r>    -5.4406    61.5193     6.5104 </r>
       <r>    -5.3873    26.3072     7.9130 </r>
       <r>    -5.3340     1.6183     7.9993 </r>
       <r>    -5.2807     0.0127     8.0000 </r>
       <r>    -5.2274     0.0000     8.0000 </r>
       <r>    -5.1740     0.0000     8.0000 </r>
       <r>    -5.1207     0.0007     8.0000 </r>
       <r>    -5.0674     0.2271     8.0121 </r>
       <r>    -5.0141     9.3661     8.5115 </r>
       <r>    -4.9608    52.6319    11.3178 </r>
       <r>    -4.9074    44.5857    13.6950 </r>
       <r>    -4.8541     5.6248    13.9949 </r>
       <r>    -4.8008     0.0947    14.0000 </r>
       <r>    -4.7475     0.0002    14.0000 </r>
       <r>    -4.6942     0.0001    14.0000 </r>
       <r>    -4.6409     0.0397    14.0021 </r>
       <r>    -4.5875     2.1676    14.1177 </r>
       <r>    -4.5342    15.9266    14.9669 </r>
       <r>    -4.4809    26.2704    16.3676 </r>
       <r>    -4.4276    55.4191    19.3224 </r>
       <r>    -4.3743    44.5391    21.6972 </r>
       <r>    -4.3209     5.5853    21.9950 </r>
       <r>    -4.2676     0.0935    22.0000 </r>
       <r>    -4.2143     0.0002    22.0000 </r>
       <r>    -4.1610     0.0056    22.0003 </r>
       <r>    -4.1077     1.1730    22.0628 </r>
       <r>    -4.0543    31.1443    23.7234 </r>
       <r>    -4.0010   117.7822    30.0034 </r>
       <r>    -3.9477    68.9152    33.6779 </r>
       <r>    -3.8944     8.6860    34.1410 </r>
       <r>    -3.8411    33.1440    35.9082 </r>
       <r>    -3.7878    59.6629    39.0893 </r>
       <r>    -3.7344    16.4399    39.9659 </r>
       <r>    -3.6811     0.6371    39.9998 </r>
       <r>    -3.6278     0.0031    40.0000 </r>
       <r>    -3.5745     0.0000    40.0000 </r>
       <r>    -3.5212     0.0000    40.0000 </r>
       <r>    -3.4678     0.0047    40.0003 </r>
       <r>    -3.4145     0.8456    40.0453 </r>
       <r>    -3.3612    19.0585    41.0615 </r>
       <r>    -3.3079    60.8272    44.3047 </r>
       <r>    -3.2546    29.6723    45.8868 </r>
       <r>    -3.2012     2.1035    45.9990 </r>
       <r>    -3.1479     0.0193    46.0000 </r>
       <r>    -3.0946     0.0075    46.0004 </r>
       <r>    -3.0413     1.1488    46.0617 </r>
       <r>    -2.9880    22.2650    47.2488 </r>
       <r>    -2.9347    61.5452    50.5303 </r>
       <r>    -2.8813    27.2221    51.9817 </r>
       <r>    -2.8280    33.6996    53.7786 </r>
       <r>    -2.7747   118.4128    60.0922 </r>
       <r>    -2.7214    67.5024    63.6913 </r>
       <r>    -2.6681     5.7252    63.9966 </r>
       <r>    -2.6147     0.0646    64.0000 </r>
       <r>    -2.5614     0.0001    64.0000 </r>
       <r>    -2.5081     0.0000    64.0000 </r>
       <r>    -2.4548     0.0000    64.0000 </r>
       <r>    -2.4015     0.0000    64.0000 </r>
       <r>    -2.3482     0.0000    64.0000 </r>
       <r>    -2.2948     0.0000    64.0000 </r>
       <r>    -2.2415     0.0000    64.0000 </r>
       <r>    -2.1882     0.0000    64.0000 </r>
       <r>    -2.1349     0.0000    64.0000 </r>
       <r>    -2.0816     0.0000    64.0000 </r>
       <r>    -2.0282     0.0000    64.0000 </r>
       <r>    -1.9749     0.0000    64.0000 </r>
       <r>    -1.9216     0.0000    64.0000 </r>
       <r>    -1.8683     0.0000    64.0000 </r>
       <r>    -1.8150     0.0000    64.0000 </r>
       <r>    -1.7616     0.0000    64.0000 </r>
       <r>    -1.7083     0.0000    64.0000 </r>
       <r>    -1.6550     0.0000    64.0000 </r>
       <r>    -1.6017     0.0000    64.0000 </r>
       <r>    -1.5484     0.0000    64.0000 </r>
       <r>    -1.4951     0.0000    64.0000 </r>
       <r>    -1.4417     0.0000    64.0000 </r>
       <r>    -1.3884     0.0101    64.0005 </r>
       <r>    -1.3351     1.7359    64.0931 </r>
       <r>    -1.2818    38.2305    66.1315 </r>
       <r>    -1.2285   122.8012    72.6791 </r>
       <r>    -1.1751    85.9116    77.2598 </r>
       <r>    -1.1218    66.5118    80.8061 </r>
       <r>    -1.0685    38.9468    82.8827 </r>
       <r>    -1.0152    64.0642    86.2985 </r>
       <r>    -0.9619    67.1368    89.8781 </r>
       <r>    -0.9085    61.1919    93.1408 </r>
       <r>    -0.8552    15.5194    93.9683 </r>
       <r>    -0.8019     0.5921    93.9998 </r>
       <r>    -0.7486     0.0029    94.0000 </r>
       <r>    -0.6953     0.0000    94.0000 </r>
       <r>    -0.6420     0.0000    94.0000 </r>
       <r>    -0.5886     0.0000    94.0000 </r>
       <r>    -0.5353     0.0000    94.0000 </r>
       <r>    -0.4820     0.0000    94.0000 </r>
       <r>    -0.4287     0.0000    94.0000 </r>
       <r>    -0.3754     0.0042    94.0002 </r>
       <r>    -0.3220     0.5370    94.0289 </r>
       <r>    -0.2687     9.0147    94.5095 </r>
       <r>    -0.2154    33.8936    96.3167 </r>
       <r>    -0.1621   101.2562   101.7155 </r>
       <r>    -0.1088   100.9690   107.0990 </r>
       <r>    -0.0555    16.5205   107.9799 </r>
       <r>    -0.0021     0.3763   107.9999 </r>
       <r>     0.0512     0.0011   108.0000 </r>
       <r>     0.1045     0.0000   108.0000 </r>
       <r>     0.1578     0.0000   108.0000 </r>
       <r>     0.2111     0.0000   108.0000 </r>
       <r>     0.2645     0.0000   108.0000 </r>
       <r>     0.3178     0.0000   108.0000 </r>
       <r>     0.3711     0.0000   108.0000 </r>
       <r>     0.4244     0.0000   108.0000 </r>
       <r>     0.4777     0.0000   108.0000 </r>
       <r>     0.5311     0.0000   108.0000 </r>
       <r>     0.5844     0.0148   108.0008 </r>
       <r>     0.6377     1.7527   108.0942 </r>
       <r>     0.6910    27.1021   109.5393 </r>
       <r>     0.7443    61.2211   112.8035 </r>
       <r>     0.7976    21.3596   113.9424 </r>
       <r>     0.8510     1.0738   113.9996 </r>
       <r>     0.9043     0.0101   114.0002 </r>
       <r>     0.9576     0.6503   114.0348 </r>
       <r>     1.0109    16.6662   114.9235 </r>
       <r>     1.0642    59.8560   118.1149 </r>
       <r>     1.1176    32.7207   119.8595 </r>
       <r>     1.1709     2.6077   119.9986 </r>
       <r>     1.2242     0.0270   120.0000 </r>
       <r>     1.2775     0.0000   120.0000 </r>
       <r>     1.3308     0.0000   120.0000 </r>
       <r>     1.3842     0.0000   120.0000 </r>
       <r>     1.4375     0.0000   120.0000 </r>
       <r>     1.4908     0.0003   120.0000 </r>
       <r>     1.5441     0.1648   120.0088 </r>
       <r>     1.5974    10.3941   120.5630 </r>
       <r>     1.6507    90.0736   125.3656 </r>
       <r>     1.7041   144.9758   133.0955 </r>
       <r>     1.7574    77.7010   137.2384 </r>
       <r>     1.8107    13.8537   137.9771 </r>
       <r>     1.8640     0.4282   137.9999 </r>
       <r>     1.9173     0.0017   138.0000 </r>
       <r>     1.9707     0.0000   138.0000 </r>
       <r>     2.0240     0.0000   138.0000 </r>
       <r>     2.0773     0.0000   138.0000 </r>
       <r>     2.1306     0.0061   138.0003 </r>
       <r>     2.1839     1.0046   138.0539 </r>
       <r>     2.2372    20.9201   139.1693 </r>
       <r>     2.2906    64.1149   142.5878 </r>
       <r>     2.3439    76.4616   146.6647 </r>
       <r>     2.3972   147.8297   154.5467 </r>
       <r>     2.4505   110.3259   160.4292 </r>
       <r>     2.5038    27.9527   161.9196 </r>
       <r>     2.5572     1.4976   161.9994 </r>
       <r>     2.6105     0.0628   162.0028 </r>
       <r>     2.6638     5.0401   162.2715 </r>
       <r>     2.7171    64.2095   165.6951 </r>
       <r>     2.7704   119.9899   172.0927 </r>
       <r>     2.8238    34.3713   173.9254 </r>
       <r>     2.8771     1.4307   174.0017 </r>
       <r>     2.9304     3.9579   174.2127 </r>
       <r>     2.9837    55.7298   177.1841 </r>
       <r>     3.0370   120.6978   183.6196 </r>
       <r>     3.0903    42.3729   185.8788 </r>
       <r>     3.1437     2.2565   185.9991 </r>
       <r>     3.1970     0.0164   186.0000 </r>
       <r>     3.2503     0.1030   186.0055 </r>
       <r>     3.3036     6.8542   186.3710 </r>
       <r>     3.3569    67.8418   189.9882 </r>
       <r>     3.4103   120.4745   196.4117 </r>
       <r>     3.4636    80.5096   200.7044 </r>
       <r>     3.5169    53.0220   203.5314 </r>
       <r>     3.5702     8.5933   203.9896 </r>
       <r>     3.6235     0.3031   204.0058 </r>
       <r>     3.6769     8.0592   204.4355 </r>
       <r>     3.7302    85.5145   208.9950 </r>
       <r>     3.7835   164.4668   217.7641 </r>
       <r>     3.8368    72.1891   221.6132 </r>
       <r>     3.8901     7.1370   221.9937 </r>
       <r>     3.9434     0.2346   222.0062 </r>
       <r>     3.9968     4.1947   222.2299 </r>
       <r>     4.0501    28.3549   223.7417 </r>
       <r>     4.1034    66.5158   227.2882 </r>
       <r>     4.1567    45.3560   229.7065 </r>
       <r>     4.2100     5.4279   229.9960 </r>
       <r>     4.2634     1.6891   230.0860 </r>
       <r>     4.3167    26.8168   231.5159 </r>
       <r>     4.3700    78.5021   235.7015 </r>
       <r>     4.4233    81.7671   240.0612 </r>
       <r>     4.4766    34.2428   241.8870 </r>
       <r>     4.5300    15.3560   242.7057 </r>
       <r>     4.5833    40.5377   244.8671 </r>
       <r>     4.6366    19.8195   245.9239 </r>
       <r>     4.6899     1.4145   245.9993 </r>
       <r>     4.7432     0.0334   246.0011 </r>
       <r>     4.7965     2.1551   246.1160 </r>
       <r>     4.8499    29.8768   247.7090 </r>
       <r>     4.9032    60.6679   250.9437 </r>
       <r>     4.9565    18.9606   251.9547 </r>
       <r>     5.0098     0.8456   251.9997 </r>
       <r>     5.0631     0.0048   252.0000 </r>
       <r>     5.1165     0.0000   252.0000 </r>
       <r>     5.1698     0.0000   252.0000 </r>
       <r>     5.2231     0.0140   252.0007 </r>
       <r>     5.2764     1.4652   252.0789 </r>
       <r>     5.3297    20.0665   253.1488 </r>
       <r>     5.3830    40.3794   255.3018 </r>
       <r>     5.4364    12.5359   255.9702 </r>
       <r>     5.4897     0.5565   255.9998 </r>
       <r>     5.5430     0.0031   256.0000 </r>
       <r>     5.5963     0.0000   256.0000 </r>
       <r>     5.6496     0.0000   256.0000 </r>
       <r>     5.7030     0.0000   256.0000 </r>
       <r>     5.7563     0.0000   256.0000 </r>
       <r>     5.8096     0.0000   256.0000 </r>
       <r>     5.8629     0.0000   256.0000 </r>
       <r>     5.9162     0.0000   256.0000 </r>
       <r>     5.9696     0.0000   256.0000 </r>
       <r>     6.0229     0.0000   256.0000 </r>
       <r>     6.0762     0.0000   256.0000 </r>
       <r>     6.1295     0.0000   256.0000 </r>
       <r>     6.1828     0.0000   256.0000 </r>
       <r>     6.2361     0.0000   256.0000 </r>
       <r>     6.2895     0.0000   256.0000 </r>
       <r>     6.3428     0.0000   256.0000 </r>
       <r>     6.3961     0.0001   256.0000 </r>
       <r>     6.4494     0.0736   256.0039 </r>
       <r>     6.5027     4.8339   256.2617 </r>
       <r>     6.5561    42.1341   258.5082 </r>
       <r>     6.6094    54.5262   261.4155 </r>
       <r>     6.6627    10.6754   261.9847 </r>
       <r>     6.7160     0.2868   261.9999 </r>
       <r>     6.7693     0.0009   262.0000 </r>
       <r>     6.8227     0.0000   262.0000 </r>
       <r>     6.8760     0.0166   262.0009 </r>
       <r>     6.9293     1.9088   262.1027 </r>
       <r>     6.9826    28.3651   263.6150 </r>
       <r>     7.0359    61.1316   266.8745 </r>
       <r>     7.0892    20.1593   267.9494 </r>
       <r>     7.1426     1.1305   268.0096 </r>
       <r>     7.1959     5.1542   268.2845 </r>
       <r>     7.2492    19.7587   269.3380 </r>
       <r>     7.3025    11.4445   269.9482 </r>
       <r>     7.3558     0.9696   269.9999 </r>
       <r>     7.4092     1.2112   270.0645 </r>
       <r>     7.4625    22.7429   271.2771 </r>
       <r>     7.5158    61.7592   274.5700 </r>
       <r>     7.5691    34.0081   276.3833 </r>
       <r>     7.6224    52.6597   279.1910 </r>
       <r>     7.6757    46.5035   281.6705 </r>
       <r>     7.7291    16.9426   282.5738 </r>
       <r>     7.7824    82.2017   286.9567 </r>
       <r>     7.8357   107.0498   292.6645 </r>
       <r>     7.8890    24.1973   293.9546 </r>
       <r>     7.9423     2.3498   294.0799 </r>
       <r>     7.9957    35.6939   295.9831 </r>
       <r>     8.0490   126.6223   302.7344 </r>
       <r>     8.1023    83.4463   307.1836 </r>
       <r>     8.1556    14.5963   307.9619 </r>
       <r>     8.2089     1.5579   308.0450 </r>
       <r>     8.2623    19.1435   309.0657 </r>
       <r>     8.3156    60.9719   312.3166 </r>
       <r>     8.3689    29.5149   313.8903 </r>
       <r>     8.4222     4.6007   314.1356 </r>
       <r>     8.4755    46.3201   316.6053 </r>
       <r>     8.5288   133.1825   323.7064 </r>
       <r>     8.5822    71.9898   327.5448 </r>
       <r>     8.6355     8.3372   327.9893 </r>
       <r>     8.6888     0.1991   328.0000 </r>
       <r>     8.7421     0.0008   328.0000 </r>
       <r>     8.7954     0.0000   328.0000 </r>
       <r>     8.8488     0.0000   328.0000 </r>
       <r>     8.9021     0.0000   328.0000 </r>
       <r>     8.9554     0.0000   328.0000 </r>
       <r>     9.0087     0.0000   328.0000 </r>
       <r>     9.0620     0.0000   328.0000 </r>
       <r>     9.1154     0.0000   328.0000 </r>
       <r>     9.1687     0.0000   328.0000 </r>
       <r>     9.2220     0.0000   328.0000 </r>
       <r>     9.2753     0.0000   328.0000 </r>
      </set>
     </set>
    </array>
   </total>
  </dos>
 </calculation>
 <structure name="finalpos" >
  <crystal>
   <varray name="basis" >
    <v>      10.93252578       0.00000000       0.00000000 </v>
    <v>       0.00000000      10.93252578       0.00000000 </v>
    <v>       0.00000000       0.00000000      10.93252578 </v>
   </varray>
   <i name="volume">   1306.65679237 </i>
   <varray name="rec_basis" >
    <v>       0.09147017       0.00000000       0.00000000 </v>
    <v>       0.00000000       0.09147017       0.00000000 </v>
    <v>       0.00000000       0.00000000       0.09147017 </v>
   </varray>
  </crystal>
  <varray name="positions" >
   <v>       0.44024411       0.43750000       0.43750000 </v>
   <v>       0.93750000       0.43750000       0.43750000 </v>
   <v>       0.43750000       0.93750000       0.43750000 </v>
   <v>       0.93750000       0.93750000       0.43750000 </v>
   <v>       0.43750000       0.43750000       0.93750000 </v>
   <v>       0.93750000       0.43750000       0.93750000 </v>
   <v>       0.43750000       0.93750000       0.93750000 </v>
   <v>       0.93750000       0.93750000       0.93750000 </v>
   <v>       0.43750000       0.18750000       0.18750000 </v>
   <v>       0.93750000       0.18750000       0.18750000 </v>
   <v>       0.43750000       0.68750000       0.18750000 </v>
   <v>       0.93750000       0.68750000       0.18750000 </v>
   <v>       0.43750000       0.18750000       0.68750000 </v>
   <v>       0.93750000       0.18750000       0.68750000 </v>
   <v>       0.43750000       0.68750000       0.68750000 </v>
   <v>       0.93750000       0.68750000       0.68750000 </v>
   <v>       0.18750000       0.43750000       0.18750000 </v>
   <v>       0.68750000       0.43750000       0.18750000 </v>
   <v>       0.18750000       0.93750000       0.18750000 </v>
   <v>       0.68750000       0.93750000       0.18750000 </v>
   <v>       0.18750000       0.43750000       0.68750000 </v>
   <v>       0.68750000       0.43750000       0.68750000 </v>
   <v>       0.18750000       0.93750000       0.68750000 </v>
   <v>       0.68750000       0.93750000       0.68750000 </v>
   <v>       0.18750000       0.18750000       0.43750000 </v>
   <v>       0.68750000       0.18750000       0.43750000 </v>
   <v>       0.18750000       0.68750000       0.43750000 </v>
   <v>       0.68750000       0.68750000       0.43750000 </v>
   <v>       0.18750000       0.18750000       0.93750000 </v>
   <v>       0.68750000       0.18750000       0.93750000 </v>
   <v>       0.18750000       0.68750000       0.93750000 </v>
   <v>       0.68750000       0.68750000       0.93750000 </v>
   <v>       0.06250000       0.06250000       0.06250000 </v>
   <v>       0.56250000       0.06250000       0.06250000 </v>
   <v>       0.06250000       0.56250000       0.06250000 </v>
   <v>       0.56250000       0.56250000       0.06250000 </v>
   <v>       0.06250000       0.06250000       0.56250000 </v>
   <v>       0.56250000       0.06250000       0.56250000 </v>
   <v>       0.06250000       0.56250000       0.56250000 </v>
   <v>       0.56250000       0.56524411       0.56250000 </v>
   <v>       0.06250000       0.31250000       0.31250000 </v>
   <v>       0.56250000       0.31250000       0.31250000 </v>
   <v>       0.06250000       0.81250000       0.31250000 </v>
   <v>       0.56250000       0.81250000       0.31250000 </v>
   <v>       0.06250000       0.31250000       0.81250000 </v>
   <v>       0.56250000       0.31250000       0.81250000 </v>
   <v>       0.06250000       0.81250000       0.81250000 </v>
   <v>       0.56250000       0.81250000       0.81250000 </v>
   <v>       0.31250000       0.06250000       0.31250000 </v>
   <v>       0.81250000       0.06250000       0.31250000 </v>
   <v>       0.31250000       0.56250000       0.31250000 </v>
   <v>       0.81250000       0.56250000       0.31250000 </v>
   <v>       0.31250000       0.06250000       0.81250000 </v>
   <v>       0.81250000       0.06250000       0.81250000 </v>
   <v>       0.31250000       0.56250000       0.81250000 </v>
   <v>       0.81250000       0.56250000       0.81250000 </v>
   <v>       0.31250000       0.31250000       0.06250000 </v>
   <v>       0.81250000       0.31250000       0.06250000 </v>
   <v>       0.31250000       0.81250000       0.06250000 </v>
   <v>       0.81250000       0.81250000       0.06250000 </v>
   <v>       0.31250000       0.31250000       0.56250000 </v>
   <v>       0.81250000       0.31250000       0.56250000 </v>
   <v>       0.31250000       0.81250000       0.56250000 </v>
   <v>       0.81250000       0.81250000       0.56250000 </v>
  </varray>
 </structure>
</modeling>
