<?xml version="1.0" encoding="ISO-8859-1"?>
<modeling>
 <generator>
  <i name="program" type="string">vasp </i>
  <i name="version" type="string">5.4.1  </i>
  <i name="subversion" type="string">05Feb16 (build Mar 26 2016 11:58:25) complex                          parallel </i>
  <i name="platform" type="string">IFC91_ompi </i>
  <i name="date" type="string">2017 03 12 </i>
  <i name="time" type="string">12:17:56 </i>
 </generator>
 <incar>
  <i type="string" name="PREC">accurate</i>
  <i type="int" name="IALGO">    38</i>
  <i type="logical" name="ADDGRID"> T  </i>
  <i type="int" name="NELMIN">     5</i>
  <i type="int" name="IBRION">    -1</i>
  <i name="EDIFF">      0.00000001</i>
  <i name="ENCUT">    300.00000000</i>
  <i type="logical" name="LREAL"> F  </i>
  <i type="int" name="ISMEAR">     0</i>
  <i name="SIGMA">      0.05000000</i>
  <i type="logical" name="LWAVE"> F  </i>
  <i type="logical" name="LCHARG"> F  </i>
  <v type="int" name="KPOINT_BSE">    -1     0     0     0</v>
 </incar>
 <kpoints>
  <generation param="Monkhorst-Pack">
   <v type="int" name="divisions">       2        2        2 </v>
   <v name="usershift">      0.00000000       0.00000000       0.00000000 </v>
   <v name="genvec1">      0.50000000       0.00000000       0.00000000 </v>
   <v name="genvec2">      0.00000000       0.50000000       0.00000000 </v>
   <v name="genvec3">      0.00000000       0.00000000       0.50000000 </v>
   <v name="shift">      0.50000000       0.50000000       0.50000000 </v>
  </generation>
  <varray name="kpointlist" >
   <v>       0.25000000       0.25000000       0.25000000 </v>
   <v>       0.25000000      -0.25000000       0.25000000 </v>
   <v>      -0.25000000      -0.25000000       0.25000000 </v>
  </varray>
  <varray name="weights" >
   <v>       0.50000000 </v>
   <v>       0.25000000 </v>
   <v>       0.25000000 </v>
  </varray>
 </kpoints>
 <parameters>
  <separator name="general" >
   <i type="string" name="SYSTEM">unknown system</i>
   <i type="logical" name="LCOMPAT"> F  </i>
  </separator>
  <separator name="electronic" >
   <i type="string" name="PREC">accura</i>
   <i name="ENMAX">    300.00000000</i>
   <i name="ENAUG">    322.06900000</i>
   <i name="EDIFF">      0.00000001</i>
   <i type="int" name="IALGO">    38</i>
   <i type="int" name="IWAVPR">    10</i>
   <i type="int" name="NBANDS">   164</i>
   <i name="NELECT">    256.00000000</i>
   <i type="int" name="TURBO">     0</i>
   <i type="int" name="IRESTART">     0</i>
   <i type="int" name="NREBOOT">     0</i>
   <i type="int" name="NMIN">     0</i>
   <i name="EREF">      0.00000000</i>
   <separator name="electronic smearing" >
    <i type="int" name="ISMEAR">     0</i>
    <i name="SIGMA">      0.05000000</i>
    <i name="KSPACING">      0.50000000</i>
    <i type="logical" name="KGAMMA"> T  </i>
   </separator>
   <separator name="electronic projectors" >
    <i type="logical" name="LREAL"> F  </i>
    <v name="ROPT">      0.00000000</v>
    <i type="int" name="LMAXPAW">  -100</i>
    <i type="int" name="LMAXMIX">     2</i>
    <i type="logical" name="NLSPLINE"> F  </i>
   </separator>
   <separator name="electronic startup" >
    <i type="int" name="ISTART">     0</i>
    <i type="int" name="ICHARG">     2</i>
    <i type="int" name="INIWAV">     1</i>
   </separator>
   <separator name="electronic spin" >
    <i type="int" name="ISPIN">     1</i>
    <i type="logical" name="LNONCOLLINEAR"> F  </i>
    <v name="MAGMOM">      1.00000000      1.00000000      1.00000000      1.00000000      1.00000000      1.00000000      1.00000000      1.00000000      1.00000000      1.00000000      1.00000000      1.00000000      1.00000000      1.00000000      1.00000000      1.00000000      1.00000000      1.00000000      1.00000000      1.00000000
      1.00000000      1.00000000      1.00000000      1.00000000      1.00000000      1.00000000      1.00000000      1.00000000      1.00000000      1.00000000      1.00000000      1.00000000      1.00000000      1.00000000      1.00000000      1.00000000      1.00000000      1.00000000      1.00000000      1.00000000
      1.00000000      1.00000000      1.00000000      1.00000000      1.00000000      1.00000000      1.00000000      1.00000000      1.00000000      1.00000000      1.00000000      1.00000000      1.00000000      1.00000000      1.00000000      1.00000000      1.00000000      1.00000000      1.00000000      1.00000000
      1.00000000      1.00000000      1.00000000      1.00000000</v>
    <i name="NUPDOWN">     -1.00000000</i>
    <i type="logical" name="LSORBIT"> F  </i>
    <v name="SAXIS">      0.00000000      0.00000000      1.00000000</v>
    <i type="logical" name="LSPIRAL"> F  </i>
    <v name="QSPIRAL">      0.00000000      0.00000000      0.00000000</v>
    <i type="logical" name="LZEROZ"> F  </i>
   </separator>
   <separator name="electronic exchange-correlation" >
    <i type="logical" name="LASPH"> F  </i>
    <i type="logical" name="LMETAGGA"> F  </i>
   </separator>
   <separator name="electronic convergence" >
    <i type="int" name="NELM">    60</i>
    <i type="int" name="NELMDL">    -5</i>
    <i type="int" name="NELMIN">     5</i>
    <i name="ENINI">    300.00000000</i>
    <separator name="electronic convergence detail" >
     <i type="logical" name="LDIAG"> T  </i>
     <i type="logical" name="LSUBROT"> F  </i>
     <i name="WEIMIN">      0.00000000</i>
     <i name="EBREAK">      0.00000000</i>
     <i name="DEPER">      0.30000000</i>
     <i type="int" name="NRMM">     4</i>
     <i name="TIME">      0.40000000</i>
    </separator>
   </separator>
   <separator name="electronic mixer" >
    <i name="AMIX">      0.40000000</i>
    <i name="BMIX">      1.00000000</i>
    <i name="AMIN">      0.10000000</i>
    <i name="AMIX_MAG">      1.60000000</i>
    <i name="BMIX_MAG">      1.00000000</i>
    <separator name="electronic mixer details" >
     <i type="int" name="IMIX">     4</i>
     <i type="logical" name="MIXFIRST"> F  </i>
     <i type="int" name="MAXMIX">   -45</i>
     <i name="WC">    100.00000000</i>
     <i type="int" name="INIMIX">     1</i>
     <i type="int" name="MIXPRE">     1</i>
     <i type="int" name="MREMOVE">     5</i>
    </separator>
   </separator>
   <separator name="electronic dipolcorrection" >
    <i type="logical" name="LDIPOL"> F  </i>
    <i type="logical" name="LMONO"> F  </i>
    <i type="int" name="IDIPOL">     0</i>
    <i name="EPSILON">      1.00000000</i>
    <v name="DIPOL">   -100.00000000   -100.00000000   -100.00000000</v>
    <i name="EFIELD">      0.00000000</i>
   </separator>
  </separator>
  <separator name="grids" >
   <i type="int" name="NGX">    64</i>
   <i type="int" name="NGY">    64</i>
   <i type="int" name="NGZ">    64</i>
   <i type="int" name="NGXF">   128</i>
   <i type="int" name="NGYF">   128</i>
   <i type="int" name="NGZF">   128</i>
   <i type="logical" name="ADDGRID"> T  </i>
  </separator>
  <separator name="ionic" >
   <i type="int" name="NSW">     0</i>
   <i type="int" name="IBRION">    -1</i>
   <i type="int" name="ISIF">     2</i>
   <i name="PSTRESS">      0.00000000</i>
   <i name="EDIFFG">      0.00000010</i>
   <i type="int" name="NFREE">     0</i>
   <i name="POTIM">      0.50000000</i>
   <i name="SMASS">     -3.00000000</i>
   <i name="SCALEE">      1.00000000</i>
  </separator>
  <separator name="ionic md" >
   <i name="TEBEG">      0.00010000</i>
   <i name="TEEND">      0.00010000</i>
   <i type="int" name="NBLOCK">     1</i>
   <i type="int" name="KBLOCK">     1</i>
   <i type="int" name="NPACO">   256</i>
   <i name="APACO">     16.00000000</i>
  </separator>
  <separator name="symmetry" >
   <i type="int" name="ISYM">     2</i>
   <i name="SYMPREC">      0.00001000</i>
  </separator>
  <separator name="dos" >
   <i type="logical" name="LORBIT"> F  </i>
   <v name="RWIGS">     -1.00000000</v>
   <i type="int" name="NEDOS">   301</i>
   <i name="EMIN">     10.00000000</i>
   <i name="EMAX">    -10.00000000</i>
   <i name="EFERMI">      0.00000000</i>
  </separator>
  <separator name="writing" >
   <i type="int" name="NWRITE">     2</i>
   <i type="logical" name="LWAVE"> F  </i>
   <i type="logical" name="LCHARG"> F  </i>
   <i type="logical" name="LPARD"> F  </i>
   <i type="logical" name="LVTOT"> F  </i>
   <i type="logical" name="LVHAR"> F  </i>
   <i type="logical" name="LELF"> F  </i>
   <i type="logical" name="LOPTICS"> F  </i>
   <v name="STM">      0.00000000      0.00000000      0.00000000      0.00000000      0.00000000      0.00000000      0.00000000</v>
  </separator>
  <separator name="performance" >
   <i type="int" name="NPAR">     4</i>
   <i type="int" name="NSIM">     4</i>
   <i type="int" name="NBLK">    -1</i>
   <i type="logical" name="LPLANE"> T  </i>
   <i type="logical" name="LSCALAPACK"> T  </i>
   <i type="logical" name="LSCAAWARE"> F  </i>
   <i type="logical" name="LSCALU"> F  </i>
   <i type="logical" name="LASYNC"> F  </i>
   <i type="logical" name="LORBITALREAL"> F  </i>
  </separator>
  <separator name="miscellaneous" >
   <i type="int" name="IDIOT">     3</i>
   <i type="logical" name="LMUSIC"> F  </i>
   <v name="POMASS">     28.08500000</v>
   <v name="DARWINR">      0.00000000</v>
   <v name="DARWINV">      1.00000000</v>
   <i type="logical" name="LCORR"> T  </i>
  </separator>
  <i type="logical" name="GGA_COMPAT"> T  </i>
  <i type="logical" name="LBERRY"> F  </i>
  <i type="int" name="ICORELEVEL">     0</i>
  <i type="logical" name="LDAU"> F  </i>
  <i type="int" name="I_CONSTRAINED_M">     0</i>
  <separator name="electronic exchange-correlation" >
   <i type="string" name="GGA">--</i>
   <i type="int" name="VOSKOWN">     0</i>
   <i type="logical" name="LHFCALC"> F  </i>
   <i type="string" name="PRECFOCK"></i>
   <i type="logical" name="LSYMGRAD"> F  </i>
   <i type="logical" name="LHFONE"> F  </i>
   <i type="logical" name="LRHFCALC"> F  </i>
   <i type="logical" name="LTHOMAS"> F  </i>
   <i type="logical" name="LMODELHF"> F  </i>
   <i name="ENCUT4O">     -1.00000000</i>
   <i type="int" name="EXXOEP">     0</i>
   <i type="int" name="FOURORBIT">     0</i>
   <i name="AEXX">      0.00000000</i>
   <i name="HFALPHA">      0.00000000</i>
   <i name="MCALPHA">      0.00000000</i>
   <i name="ALDAX">      1.00000000</i>
   <i name="AGGAX">      1.00000000</i>
   <i name="ALDAC">      1.00000000</i>
   <i name="AGGAC">      1.00000000</i>
   <i type="int" name="NKREDX">     1</i>
   <i type="int" name="NKREDY">     1</i>
   <i type="int" name="NKREDZ">     1</i>
   <i type="logical" name="SHIFTRED"> F  </i>
   <i type="logical" name="ODDONLY"> F  </i>
   <i type="logical" name="EVENONLY"> F  </i>
   <i type="int" name="LMAXFOCK">     0</i>
   <i type="int" name="NMAXFOCKAE">     0</i>
   <i type="logical" name="LFOCKAEDFT"> F  </i>
   <i name="HFSCREEN">      0.00000000</i>
   <i name="HFSCREENC">      0.00000000</i>
   <i type="int" name="NBANDSGWLOW">     0</i>
  </separator>
  <separator name="vdW DFT" >
   <i type="logical" name="LUSE_VDW"> F  </i>
   <i name="Zab_VDW">     -0.84910000</i>
   <i name="PARAM1">      0.12340000</i>
   <i name="PARAM2">      1.00000000</i>
   <i name="PARAM3">      0.00000000</i>
  </separator>
  <separator name="model GW" >
   <i type="int" name="MODEL_GW">     0</i>
   <i name="MODEL_EPS0">     12.24990743</i>
   <i name="MODEL_ALPHA">      1.00000000</i>
  </separator>
  <separator name="linear response parameters" >
   <i type="logical" name="LEPSILON"> F  </i>
   <i type="logical" name="LRPA"> F  </i>
   <i type="logical" name="LNABLA"> F  </i>
   <i type="logical" name="LVEL"> F  </i>
   <i type="int" name="KINTER">     0</i>
   <i name="CSHIFT">      0.10000000</i>
   <i name="OMEGAMAX">     -1.00000000</i>
   <i name="DEG_THRESHOLD">      0.00200000</i>
  </separator>
  <separator name="orbital magnetization" >
   <i type="logical" name="NUCIND"> F  </i>
   <v name="MAGPOS">      0.00000000      0.00000000      0.00000000</v>
   <i type="logical" name="LNICSALL"> T  </i>
   <i type="logical" name="ORBITALMAG"> F  </i>
   <i type="logical" name="LMAGBLOCH"> F  </i>
   <i type="logical" name="LCHIMAG"> F  </i>
   <i type="logical" name="LGAUGE"> T  </i>
   <i type="int" name="MAGATOM">     0</i>
   <v name="MAGDIPOL">      0.00000000      0.00000000      0.00000000</v>
   <v name="AVECCONST">      0.00000000      0.00000000      0.00000000</v>
  </separator>
  <separator name="response functions" >
   <i type="logical" name="LADDER"> F  </i>
   <i type="logical" name="LFXC"> F  </i>
   <i type="logical" name="LHARTREE"> T  </i>
   <i type="int" name="IBSE">     0</i>
   <v type="int" name="KPOINT">    -1     0     0     0</v>
   <i type="logical" name="LTCTE"> F  </i>
   <i type="logical" name="LTETE"> F  </i>
   <i type="logical" name="LTRIPLET"> F  </i>
   <i type="logical" name="LFXCEPS"> F  </i>
   <i type="logical" name="LFXHEG"> F  </i>
   <i type="int" name="NATURALO">     0</i>
   <i type="logical" name="L2ORDER"> F  </i>
   <i type="logical" name="LUSEW"> F  </i>
   <i name="ENCUTGW">     -2.00000000</i>
   <i name="ENCUTGWSOFT">     -2.00000000</i>
   <i name="ENCUTLF">     -1.00000000</i>
   <i type="int" name="LMAXMP2">    -1</i>
   <i name="SCISSOR">      0.00000000</i>
   <i type="int" name="NOMEGA">     0</i>
   <i type="int" name="NOMEGAR">     0</i>
   <i type="int" name="NBANDSGW">    -1</i>
   <i type="int" name="NBANDSO">    -1</i>
   <i type="int" name="NBANDSV">    -1</i>
   <i type="int" name="NELM">     1</i>
   <i type="int" name="NELMHF">     1</i>
   <i type="int" name="DIM">     3</i>
   <i type="int" name="ANTIRES">     0</i>
   <i name="OMEGAMAX">    -30.00000000</i>
   <i name="OMEGAMIN">    -30.00000000</i>
   <i name="OMEGATL">   -200.00000000</i>
   <i type="int" name="OMEGAGRID">     0</i>
   <i name="CSHIFT">     -0.10000000</i>
   <i type="logical" name="SELFENERGY"> F  </i>
   <i type="logical" name="LSPECTRAL"> F  </i>
   <i type="logical" name="LSPECTRALGW"> F  </i>
   <i type="logical" name="LSINGLES"> F  </i>
   <i type="logical" name="LFERMIGW"> F  </i>
   <i type="logical" name="ODDONLYGW"> F  </i>
   <i type="logical" name="EVENONLYGW"> F  </i>
   <i type="int" name="NKREDLFX">     1</i>
   <i type="int" name="NKREDLFY">     1</i>
   <i type="int" name="NKREDLFZ">     1</i>
   <i type="int" name="MAXMEM">  1800</i>
   <i type="int" name="TELESCOPE">     0</i>
   <i type="int" name="TAUPAR">     1</i>
   <i type="int" name="OMEGAPAR">    -1</i>
   <i name="LAMBDA">      1.00000000</i>
  </separator>
  <separator name="External order field" >
   <i name="OFIELD_KAPPA">      0.00000000</i>
   <v name="OFIELD_K">      0.00000000      0.00000000      0.00000000</v>
   <i name="OFIELD_Q6_NEAR">      0.00000000</i>
   <i name="OFIELD_Q6_FAR">      0.00000000</i>
   <i name="OFIELD_A">      0.00000000</i>
  </separator>
 </parameters>
 <atominfo>
  <atoms>      64 </atoms>
  <types>       1 </types>
  <array name="atoms" >
   <dimension dim="1">ion</dimension>
   <field type="string">element</field>
   <field type="int">atomtype</field>
   <set>
    <rc><c>Si</c><c>   1</c></rc>
    <rc><c>Si</c><c>   1</c></rc>
    <rc><c>Si</c><c>   1</c></rc>
    <rc><c>Si</c><c>   1</c></rc>
    <rc><c>Si</c><c>   1</c></rc>
    <rc><c>Si</c><c>   1</c></rc>
    <rc><c>Si</c><c>   1</c></rc>
    <rc><c>Si</c><c>   1</c></rc>
    <rc><c>Si</c><c>   1</c></rc>
    <rc><c>Si</c><c>   1</c></rc>
    <rc><c>Si</c><c>   1</c></rc>
    <rc><c>Si</c><c>   1</c></rc>
    <rc><c>Si</c><c>   1</c></rc>
    <rc><c>Si</c><c>   1</c></rc>
    <rc><c>Si</c><c>   1</c></rc>
    <rc><c>Si</c><c>   1</c></rc>
    <rc><c>Si</c><c>   1</c></rc>
    <rc><c>Si</c><c>   1</c></rc>
    <rc><c>Si</c><c>   1</c></rc>
    <rc><c>Si</c><c>   1</c></rc>
    <rc><c>Si</c><c>   1</c></rc>
    <rc><c>Si</c><c>   1</c></rc>
    <rc><c>Si</c><c>   1</c></rc>
    <rc><c>Si</c><c>   1</c></rc>
    <rc><c>Si</c><c>   1</c></rc>
    <rc><c>Si</c><c>   1</c></rc>
    <rc><c>Si</c><c>   1</c></rc>
    <rc><c>Si</c><c>   1</c></rc>
    <rc><c>Si</c><c>   1</c></rc>
    <rc><c>Si</c><c>   1</c></rc>
    <rc><c>Si</c><c>   1</c></rc>
    <rc><c>Si</c><c>   1</c></rc>
    <rc><c>Si</c><c>   1</c></rc>
    <rc><c>Si</c><c>   1</c></rc>
    <rc><c>Si</c><c>   1</c></rc>
    <rc><c>Si</c><c>   1</c></rc>
    <rc><c>Si</c><c>   1</c></rc>
    <rc><c>Si</c><c>   1</c></rc>
    <rc><c>Si</c><c>   1</c></rc>
    <rc><c>Si</c><c>   1</c></rc>
    <rc><c>Si</c><c>   1</c></rc>
    <rc><c>Si</c><c>   1</c></rc>
    <rc><c>Si</c><c>   1</c></rc>
    <rc><c>Si</c><c>   1</c></rc>
    <rc><c>Si</c><c>   1</c></rc>
    <rc><c>Si</c><c>   1</c></rc>
    <rc><c>Si</c><c>   1</c></rc>
    <rc><c>Si</c><c>   1</c></rc>
    <rc><c>Si</c><c>   1</c></rc>
    <rc><c>Si</c><c>   1</c></rc>
    <rc><c>Si</c><c>   1</c></rc>
    <rc><c>Si</c><c>   1</c></rc>
    <rc><c>Si</c><c>   1</c></rc>
    <rc><c>Si</c><c>   1</c></rc>
    <rc><c>Si</c><c>   1</c></rc>
    <rc><c>Si</c><c>   1</c></rc>
    <rc><c>Si</c><c>   1</c></rc>
    <rc><c>Si</c><c>   1</c></rc>
    <rc><c>Si</c><c>   1</c></rc>
    <rc><c>Si</c><c>   1</c></rc>
    <rc><c>Si</c><c>   1</c></rc>
    <rc><c>Si</c><c>   1</c></rc>
    <rc><c>Si</c><c>   1</c></rc>
    <rc><c>Si</c><c>   1</c></rc>
   </set>
  </array>
  <array name="atomtypes" >
   <dimension dim="1">type</dimension>
   <field type="int">atomspertype</field>
   <field type="string">element</field>
   <field>mass</field>
   <field>valence</field>
   <field type="string">pseudopotential</field>
   <set>
    <rc><c>  64</c><c>Si</c><c>     28.08500000</c><c>      4.00000000</c><c>  PAW_PBE Si 05Jan2001                  </c></rc>
   </set>
  </array>
 </atominfo>
 <structure name="initialpos" >
  <crystal>
   <varray name="basis" >
    <v>      10.93252578       0.00000000       0.00000000 </v>
    <v>       0.00000000      10.93252578       0.00000000 </v>
    <v>       0.00000000       0.00000000      10.93252578 </v>
   </varray>
   <i name="volume">   1306.65679237 </i>
   <varray name="rec_basis" >
    <v>       0.09147017       0.00000000       0.00000000 </v>
    <v>       0.00000000       0.09147017       0.00000000 </v>
    <v>       0.00000000       0.00000000       0.09147017 </v>
   </varray>
  </crystal>
  <varray name="positions" >
   <v>       0.44024411       0.43750000       0.43750000 </v>
   <v>       0.93750000       0.43750000       0.43750000 </v>
   <v>       0.43750000       0.93750000       0.43750000 </v>
   <v>       0.93750000       0.93750000       0.43750000 </v>
   <v>       0.43750000       0.43750000       0.93750000 </v>
   <v>       0.93750000       0.43750000       0.93750000 </v>
   <v>       0.43750000       0.93750000       0.93750000 </v>
   <v>       0.93750000       0.93750000       0.93750000 </v>
   <v>       0.43750000       0.18750000       0.18750000 </v>
   <v>       0.93750000       0.18750000       0.18750000 </v>
   <v>       0.43750000       0.68750000       0.18750000 </v>
   <v>       0.93750000       0.68750000       0.18750000 </v>
   <v>       0.43750000       0.18750000       0.68750000 </v>
   <v>       0.93750000       0.18750000       0.68750000 </v>
   <v>       0.43750000       0.68750000       0.68750000 </v>
   <v>       0.93750000       0.68750000       0.68750000 </v>
   <v>       0.18750000       0.43750000       0.18750000 </v>
   <v>       0.68750000       0.43750000       0.18750000 </v>
   <v>       0.18750000       0.93750000       0.18750000 </v>
   <v>       0.68750000       0.93750000       0.18750000 </v>
   <v>       0.18750000       0.43750000       0.68750000 </v>
   <v>       0.68750000       0.43750000       0.68750000 </v>
   <v>       0.18750000       0.93750000       0.68750000 </v>
   <v>       0.68750000       0.93750000       0.68750000 </v>
   <v>       0.18750000       0.18750000       0.43750000 </v>
   <v>       0.68750000       0.18750000       0.43750000 </v>
   <v>       0.18750000       0.68750000       0.43750000 </v>
   <v>       0.68750000       0.68750000       0.43750000 </v>
   <v>       0.18750000       0.18750000       0.93750000 </v>
   <v>       0.68750000       0.18750000       0.93750000 </v>
   <v>       0.18750000       0.68750000       0.93750000 </v>
   <v>       0.68750000       0.68750000       0.93750000 </v>
   <v>       0.06250000       0.06250000       0.06250000 </v>
   <v>       0.56250000       0.06250000       0.06250000 </v>
   <v>       0.06250000       0.56250000       0.06250000 </v>
   <v>       0.56250000       0.56250000       0.06250000 </v>
   <v>       0.06250000       0.06250000       0.56250000 </v>
   <v>       0.56250000       0.06250000       0.56250000 </v>
   <v>       0.06250000       0.56250000       0.56250000 </v>
   <v>       0.56250000       0.56250000       0.56250000 </v>
   <v>       0.06250000       0.31250000       0.31250000 </v>
   <v>       0.56250000       0.31250000       0.31250000 </v>
   <v>       0.06250000       0.81250000       0.31250000 </v>
   <v>       0.56250000       0.81250000       0.31250000 </v>
   <v>       0.06250000       0.31250000       0.81250000 </v>
   <v>       0.56250000       0.31250000       0.81250000 </v>
   <v>       0.06250000       0.81250000       0.81250000 </v>
   <v>       0.56250000       0.81250000       0.81250000 </v>
   <v>       0.31250000       0.06250000       0.31250000 </v>
   <v>       0.81250000       0.06250000       0.31250000 </v>
   <v>       0.31524411       0.56250000       0.31250000 </v>
   <v>       0.81250000       0.56250000       0.31250000 </v>
   <v>       0.31250000       0.06250000       0.81250000 </v>
   <v>       0.81250000       0.06250000       0.81250000 </v>
   <v>       0.31250000       0.56250000       0.81250000 </v>
   <v>       0.81250000       0.56250000       0.81250000 </v>
   <v>       0.31250000       0.31250000       0.06250000 </v>
   <v>       0.81250000       0.31250000       0.06250000 </v>
   <v>       0.31250000       0.81250000       0.06250000 </v>
   <v>       0.81250000       0.81250000       0.06250000 </v>
   <v>       0.31250000       0.31250000       0.56250000 </v>
   <v>       0.81250000       0.31250000       0.56250000 </v>
   <v>       0.31250000       0.81250000       0.56250000 </v>
   <v>       0.81250000       0.81250000       0.56250000 </v>
  </varray>
 </structure>
 <calculation>
  <scstep>
   <time name="dav">    4.15    4.16</time>
   <time name="total">    4.41    4.43</time>
   <energy>
    <i name="alphaZ">    105.52440745 </i>
    <i name="ewald">  -7265.47190089 </i>
    <i name="hartreedc">   -361.71586645 </i>
    <i name="XCdc">   -597.75718129 </i>
    <i name="pawpsdc">   5639.92317535 </i>
    <i name="pawaedc">  -4513.95313856 </i>
    <i name="eentropy">     -0.00807892 </i>
    <i name="bandstr">    858.79784309 </i>
    <i name="atom">   6596.14994790 </i>
    <i name="e_fr_energy">    461.48920769 </i>
    <i name="e_wo_entrp">    461.49728661 </i>
    <i name="e_0_energy">    461.49324715 </i>
   </energy>
  </scstep>
  <scstep>
   <time name="dav">    4.71    4.72</time>
   <time name="total">    4.71    4.72</time>
   <energy>
    <i name="e_fr_energy">   -298.28663924 </i>
    <i name="e_wo_entrp">   -298.28663924 </i>
    <i name="e_0_energy">   -298.28663924 </i>
   </energy>
  </scstep>
  <scstep>
   <time name="dav">    4.80    4.82</time>
   <time name="total">    4.81    4.82</time>
   <energy>
    <i name="e_fr_energy">   -350.94928063 </i>
    <i name="e_wo_entrp">   -350.94928063 </i>
    <i name="e_0_energy">   -350.94928063 </i>
   </energy>
  </scstep>
  <scstep>
   <time name="dav">    4.80    4.82</time>
   <time name="total">    4.81    4.83</time>
   <energy>
    <i name="e_fr_energy">   -352.27299613 </i>
    <i name="e_wo_entrp">   -352.27299613 </i>
    <i name="e_0_energy">   -352.27299613 </i>
   </energy>
  </scstep>
  <scstep>
   <time name="dav">    4.75    4.76</time>
   <time name="total">    5.05    5.06</time>
   <energy>
    <i name="e_fr_energy">   -352.31570933 </i>
    <i name="e_wo_entrp">   -352.31570933 </i>
    <i name="e_0_energy">   -352.31570933 </i>
   </energy>
  </scstep>
  <scstep>
   <time name="dav">    4.64    4.65</time>
   <time name="total">    5.20    5.22</time>
   <energy>
    <i name="e_fr_energy">   -348.58759544 </i>
    <i name="e_wo_entrp">   -348.58759544 </i>
    <i name="e_0_energy">   -348.58759544 </i>
   </energy>
  </scstep>
  <scstep>
   <time name="dav">    4.51    4.51</time>
   <time name="total">    5.07    5.08</time>
   <energy>
    <i name="e_fr_energy">   -346.87487560 </i>
    <i name="e_wo_entrp">   -346.87487560 </i>
    <i name="e_0_energy">   -346.87487560 </i>
   </energy>
  </scstep>
  <scstep>
   <time name="dav">    4.71    4.72</time>
   <time name="total">    5.28    5.33</time>
   <energy>
    <i name="e_fr_energy">   -346.90101843 </i>
    <i name="e_wo_entrp">   -346.90101843 </i>
    <i name="e_0_energy">   -346.90101843 </i>
   </energy>
  </scstep>
  <scstep>
   <time name="dav">    4.84    4.84</time>
   <time name="total">    5.40    5.41</time>
   <energy>
    <i name="e_fr_energy">   -346.90769948 </i>
    <i name="e_wo_entrp">   -346.90769948 </i>
    <i name="e_0_energy">   -346.90769948 </i>
   </energy>
  </scstep>
  <scstep>
   <time name="dav">    4.49    4.50</time>
   <time name="total">    5.05    5.07</time>
   <energy>
    <i name="e_fr_energy">   -346.90975735 </i>
    <i name="e_wo_entrp">   -346.90975735 </i>
    <i name="e_0_energy">   -346.90975735 </i>
   </energy>
  </scstep>
  <scstep>
   <time name="dav">    4.72    4.72</time>
   <time name="total">    5.28    5.29</time>
   <energy>
    <i name="e_fr_energy">   -346.90973081 </i>
    <i name="e_wo_entrp">   -346.90973081 </i>
    <i name="e_0_energy">   -346.90973081 </i>
   </energy>
  </scstep>
  <scstep>
   <time name="dav">    4.69    4.70</time>
   <time name="total">    5.25    5.27</time>
   <energy>
    <i name="e_fr_energy">   -346.90974623 </i>
    <i name="e_wo_entrp">   -346.90974623 </i>
    <i name="e_0_energy">   -346.90974623 </i>
   </energy>
  </scstep>
  <scstep>
   <time name="dav">    4.69    4.69</time>
   <time name="total">    5.25    5.29</time>
   <energy>
    <i name="e_fr_energy">   -346.90974660 </i>
    <i name="e_wo_entrp">   -346.90974660 </i>
    <i name="e_0_energy">   -346.90974660 </i>
   </energy>
  </scstep>
  <scstep>
   <time name="dav">    4.74    4.74</time>
   <time name="total">    5.30    5.31</time>
   <energy>
    <i name="e_fr_energy">   -346.90974719 </i>
    <i name="e_wo_entrp">   -346.90974719 </i>
    <i name="e_0_energy">   -346.90974719 </i>
   </energy>
  </scstep>
  <scstep>
   <time name="dav">    4.04    4.04</time>
   <time name="total">    4.60    4.61</time>
   <energy>
    <i name="e_fr_energy">   -346.90974693 </i>
    <i name="e_wo_entrp">   -346.90974693 </i>
    <i name="e_0_energy">   -346.90974693 </i>
   </energy>
  </scstep>
  <scstep>
   <time name="dav">    3.24    3.24</time>
   <time name="total">    3.80    3.83</time>
   <energy>
    <i name="e_fr_energy">   -346.90974702 </i>
    <i name="e_wo_entrp">   -346.90974702 </i>
    <i name="e_0_energy">   -346.90974702 </i>
   </energy>
  </scstep>
  <scstep>
   <time name="dav">    3.20    3.20</time>
   <time name="total">    3.77    3.78</time>
   <energy>
    <i name="e_fr_energy">   -346.90974700 </i>
    <i name="e_wo_entrp">   -346.90974700 </i>
    <i name="e_0_energy">   -346.90974700 </i>
   </energy>
  </scstep>
  <scstep>
   <time name="dav">    3.20    3.20</time>
   <time name="total">    3.76    3.78</time>
   <energy>
    <i name="e_fr_energy">   -346.90974701 </i>
    <i name="e_wo_entrp">   -346.90974701 </i>
    <i name="e_0_energy">   -346.90974701 </i>
   </energy>
  </scstep>
  <scstep>
   <time name="dav">    3.19    3.19</time>
   <time name="total">    3.46    3.46</time>
   <energy>
    <i name="alphaZ">    105.52440745 </i>
    <i name="ewald">  -7265.47190089 </i>
    <i name="hartreedc">   -485.14731013 </i>
    <i name="XCdc">   -577.61227508 </i>
    <i name="pawpsdc">  27883.26707431 </i>
    <i name="pawaedc"> -26763.98488503 </i>
    <i name="eentropy">      0.00000000 </i>
    <i name="bandstr">    160.36519445 </i>
    <i name="atom">   6596.14994790 </i>
    <i name="e_fr_energy">   -346.90974702 </i>
    <i name="e_wo_entrp">   -346.90974702 </i>
    <i name="e_0_energy">   -346.90974702 </i>
   </energy>
  </scstep>
  <structure>
   <crystal>
    <varray name="basis" >
     <v>      10.93252578       0.00000000       0.00000000 </v>
     <v>       0.00000000      10.93252578       0.00000000 </v>
     <v>       0.00000000       0.00000000      10.93252578 </v>
    </varray>
    <i name="volume">   1306.65679237 </i>
    <varray name="rec_basis" >
     <v>       0.09147017       0.00000000       0.00000000 </v>
     <v>       0.00000000       0.09147017       0.00000000 </v>
     <v>       0.00000000       0.00000000       0.09147017 </v>
    </varray>
   </crystal>
   <varray name="positions" >
    <v>       0.44024411       0.43750000       0.43750000 </v>
    <v>       0.93750000       0.43750000       0.43750000 </v>
    <v>       0.43750000       0.93750000       0.43750000 </v>
    <v>       0.93750000       0.93750000       0.43750000 </v>
    <v>       0.43750000       0.43750000       0.93750000 </v>
    <v>       0.93750000       0.43750000       0.93750000 </v>
    <v>       0.43750000       0.93750000       0.93750000 </v>
    <v>       0.93750000       0.93750000       0.93750000 </v>
    <v>       0.43750000       0.18750000       0.18750000 </v>
    <v>       0.93750000       0.18750000       0.18750000 </v>
    <v>       0.43750000       0.68750000       0.18750000 </v>
    <v>       0.93750000       0.68750000       0.18750000 </v>
    <v>       0.43750000       0.18750000       0.68750000 </v>
    <v>       0.93750000       0.18750000       0.68750000 </v>
    <v>       0.43750000       0.68750000       0.68750000 </v>
    <v>       0.93750000       0.68750000       0.68750000 </v>
    <v>       0.18750000       0.43750000       0.18750000 </v>
    <v>       0.68750000       0.43750000       0.18750000 </v>
    <v>       0.18750000       0.93750000       0.18750000 </v>
    <v>       0.68750000       0.93750000       0.18750000 </v>
    <v>       0.18750000       0.43750000       0.68750000 </v>
    <v>       0.68750000       0.43750000       0.68750000 </v>
    <v>       0.18750000       0.93750000       0.68750000 </v>
    <v>       0.68750000       0.93750000       0.68750000 </v>
    <v>       0.18750000       0.18750000       0.43750000 </v>
    <v>       0.68750000       0.18750000       0.43750000 </v>
    <v>       0.18750000       0.68750000       0.43750000 </v>
    <v>       0.68750000       0.68750000       0.43750000 </v>
    <v>       0.18750000       0.18750000       0.93750000 </v>
    <v>       0.68750000       0.18750000       0.93750000 </v>
    <v>       0.18750000       0.68750000       0.93750000 </v>
    <v>       0.68750000       0.68750000       0.93750000 </v>
    <v>       0.06250000       0.06250000       0.06250000 </v>
    <v>       0.56250000       0.06250000       0.06250000 </v>
    <v>       0.06250000       0.56250000       0.06250000 </v>
    <v>       0.56250000       0.56250000       0.06250000 </v>
    <v>       0.06250000       0.06250000       0.56250000 </v>
    <v>       0.56250000       0.06250000       0.56250000 </v>
    <v>       0.06250000       0.56250000       0.56250000 </v>
    <v>       0.56250000       0.56250000       0.56250000 </v>
    <v>       0.06250000       0.31250000       0.31250000 </v>
    <v>       0.56250000       0.31250000       0.31250000 </v>
    <v>       0.06250000       0.81250000       0.31250000 </v>
    <v>       0.56250000       0.81250000       0.31250000 </v>
    <v>       0.06250000       0.31250000       0.81250000 </v>
    <v>       0.56250000       0.31250000       0.81250000 </v>
    <v>       0.06250000       0.81250000       0.81250000 </v>
    <v>       0.56250000       0.81250000       0.81250000 </v>
    <v>       0.31250000       0.06250000       0.31250000 </v>
    <v>       0.81250000       0.06250000       0.31250000 </v>
    <v>       0.31524411       0.56250000       0.31250000 </v>
    <v>       0.81250000       0.56250000       0.31250000 </v>
    <v>       0.31250000       0.06250000       0.81250000 </v>
    <v>       0.81250000       0.06250000       0.81250000 </v>
    <v>       0.31250000       0.56250000       0.81250000 </v>
    <v>       0.81250000       0.56250000       0.81250000 </v>
    <v>       0.31250000       0.31250000       0.06250000 </v>
    <v>       0.81250000       0.31250000       0.06250000 </v>
    <v>       0.31250000       0.81250000       0.06250000 </v>
    <v>       0.81250000       0.81250000       0.06250000 </v>
    <v>       0.31250000       0.31250000       0.56250000 </v>
    <v>       0.81250000       0.31250000       0.56250000 </v>
    <v>       0.31250000       0.81250000       0.56250000 </v>
    <v>       0.81250000       0.81250000       0.56250000 </v>
   </varray>
  </structure>
  <varray name="forces" >
   <v>      -0.29407717      -0.06088326       0.06088326 </v>
   <v>       0.00027234      -0.00090595       0.00090595 </v>
   <v>      -0.00015205      -0.00092187       0.00120598 </v>
   <v>       0.00044174      -0.00060531       0.00068394 </v>
   <v>      -0.00015205      -0.00120598       0.00092187 </v>
   <v>       0.00044174      -0.00068394       0.00060531 </v>
   <v>      -0.00537582      -0.00068109       0.00068109 </v>
   <v>       0.00004291      -0.00075404       0.00075404 </v>
   <v>      -0.01435109       0.00368377       0.00154554 </v>
   <v>       0.00060221       0.00083722      -0.00043474 </v>
   <v>       0.08292059       0.06884876      -0.06884876 </v>
   <v>      -0.00028659       0.00114257      -0.00114257 </v>
   <v>      -0.00660050      -0.00199804       0.00199804 </v>
   <v>      -0.00053786       0.00051882      -0.00051882 </v>
   <v>      -0.01435109      -0.00154554      -0.00368377 </v>
   <v>       0.00060221       0.00043474      -0.00083722 </v>
   <v>       0.09872416       0.05817765       0.06649477 </v>
   <v>       0.00551734      -0.00185580      -0.00478336 </v>
   <v>      -0.00041868       0.00067218      -0.00063560 </v>
   <v>       0.00168957       0.00041727       0.00257090 </v>
   <v>       0.00421535       0.00388907      -0.00467637 </v>
   <v>       0.00642941       0.00345245       0.00634524 </v>
   <v>       0.00715803       0.00090867       0.00254138 </v>
   <v>       0.00048734       0.00097639      -0.00110638 </v>
   <v>       0.00421535       0.00467637      -0.00388907 </v>
   <v>       0.00642941      -0.00634524      -0.00345245 </v>
   <v>       0.09872416      -0.06649477      -0.05817765 </v>
   <v>       0.00551734       0.00478336       0.00185580 </v>
   <v>       0.00715803      -0.00254138      -0.00090867 </v>
   <v>       0.00048734       0.00110638      -0.00097639 </v>
   <v>      -0.00041868       0.00063560      -0.00067218 </v>
   <v>       0.00168957      -0.00257090      -0.00041727 </v>
   <v>       0.00048059       0.00098405      -0.00110198 </v>
   <v>       0.00722982       0.00091259       0.00252891 </v>
   <v>       0.00630074       0.00334924       0.00614558 </v>
   <v>       0.00432684       0.00400916      -0.00475960 </v>
   <v>       0.00162929       0.00036285       0.00249824 </v>
   <v>      -0.00045125       0.00068190      -0.00061453 </v>
   <v>       0.00538081      -0.00177187      -0.00465312 </v>
   <v>       0.10160841       0.06345477       0.07183034 </v>
   <v>       0.00538081       0.00465312       0.00177187 </v>
   <v>       0.10160841      -0.07183034      -0.06345477 </v>
   <v>       0.00630074      -0.00614558      -0.00334924 </v>
   <v>       0.00432684       0.00475960      -0.00400916 </v>
   <v>       0.00162929      -0.00249824      -0.00036285 </v>
   <v>      -0.00045125       0.00061453      -0.00068190 </v>
   <v>       0.00048059       0.00110198      -0.00098405 </v>
   <v>       0.00722982      -0.00252891      -0.00091259 </v>
   <v>      -0.00012149      -0.00089196       0.00125209 </v>
   <v>       0.00048577      -0.00063382       0.00067702 </v>
   <v>      -0.29134793      -0.06618545       0.06618545 </v>
   <v>       0.00027335      -0.00090790       0.00090790 </v>
   <v>      -0.00537631      -0.00068110       0.00068110 </v>
   <v>       0.00004027      -0.00074654       0.00074654 </v>
   <v>      -0.00012149      -0.00125209       0.00089196 </v>
   <v>       0.00048577      -0.00067702       0.00063382 </v>
   <v>      -0.01421596      -0.00143372      -0.00356758 </v>
   <v>       0.00065199       0.00046618      -0.00086231 </v>
   <v>      -0.00671044      -0.00208141       0.00208141 </v>
   <v>      -0.00055866       0.00052169      -0.00052169 </v>
   <v>       0.08031643       0.06366482      -0.06366482 </v>
   <v>      -0.00029237       0.00113142      -0.00113142 </v>
   <v>      -0.01421596       0.00356758       0.00143372 </v>
   <v>       0.00065199       0.00086231      -0.00046618 </v>
  </varray>
  <varray name="stress" >
   <v>      -0.01649282       0.00464725      -0.00464725 </v>
   <v>       0.00464726       0.01314740       0.00878473 </v>
   <v>      -0.00464726       0.00878473       0.01314740 </v>
  </varray>
  <energy>
   <i name="e_fr_energy">   -346.90974702 </i>
   <i name="e_wo_entrp">   -346.90974702 </i>
   <i name="e_0_energy">      0.00000000 </i>
  </energy>
  <time name="totalsc">  100.10  100.47</time>
  <eigenvalues>
   <array>
    <dimension dim="1">band</dimension>
    <dimension dim="2">kpoint</dimension>
    <dimension dim="3">spin</dimension>
    <field>eigene</field>
    <field>occ</field>
    <set>
     <set comment="spin 1">
      <set comment="kpoint 1">
       <r>   -5.9932    1.0000 </r>
       <r>   -5.4687    1.0000 </r>
       <r>   -5.4647    1.0000 </r>
       <r>   -5.4609    1.0000 </r>
       <r>   -4.9692    1.0000 </r>
       <r>   -4.9654    1.0000 </r>
       <r>   -4.9618    1.0000 </r>
       <r>   -4.5321    1.0000 </r>
       <r>   -4.4364    1.0000 </r>
       <r>   -4.4323    1.0000 </r>
       <r>   -4.4286    1.0000 </r>
       <r>   -4.0250    1.0000 </r>
       <r>   -4.0186    1.0000 </r>
       <r>   -4.0164    1.0000 </r>
       <r>   -4.0163    1.0000 </r>
       <r>   -4.0142    1.0000 </r>
       <r>   -4.0081    1.0000 </r>
       <r>   -3.8291    1.0000 </r>
       <r>   -3.8244    1.0000 </r>
       <r>   -3.8192    1.0000 </r>
       <r>   -3.3316    1.0000 </r>
       <r>   -3.3283    1.0000 </r>
       <r>   -3.3250    1.0000 </r>
       <r>   -2.9642    1.0000 </r>
       <r>   -2.9591    1.0000 </r>
       <r>   -2.9545    1.0000 </r>
       <r>   -2.7990    1.0000 </r>
       <r>   -2.7927    1.0000 </r>
       <r>   -2.7911    1.0000 </r>
       <r>   -2.7907    1.0000 </r>
       <r>   -2.7890    1.0000 </r>
       <r>   -2.7823    1.0000 </r>
       <r>   -1.2565    1.0000 </r>
       <r>   -1.2506    1.0000 </r>
       <r>   -1.2487    1.0000 </r>
       <r>   -1.2485    1.0000 </r>
       <r>   -1.2469    1.0000 </r>
       <r>   -1.2418    1.0000 </r>
       <r>   -1.1552    1.0000 </r>
       <r>   -1.1511    1.0000 </r>
       <r>   -1.1465    1.0000 </r>
       <r>   -1.0362    1.0000 </r>
       <r>   -1.0327    1.0000 </r>
       <r>   -1.0294    1.0000 </r>
       <r>   -0.9521    1.0000 </r>
       <r>   -0.9468    1.0000 </r>
       <r>   -0.9413    1.0000 </r>
       <r>   -0.2446    1.0000 </r>
       <r>   -0.1673    1.0000 </r>
       <r>   -0.1617    1.0000 </r>
       <r>   -0.1605    1.0000 </r>
       <r>   -0.1598    1.0000 </r>
       <r>   -0.1585    1.0000 </r>
       <r>   -0.1529    1.0000 </r>
       <r>    0.7096    1.0000 </r>
       <r>    0.7143    1.0000 </r>
       <r>    0.7189    1.0000 </r>
       <r>    1.0457    1.0000 </r>
       <r>    1.0471    1.0000 </r>
       <r>    1.0486    1.0000 </r>
       <r>    1.6531    1.0000 </r>
       <r>    1.6544    1.0000 </r>
       <r>    1.6568    1.0000 </r>
       <r>    1.6574    1.0000 </r>
       <r>    1.6596    1.0000 </r>
       <r>    1.6608    1.0000 </r>
       <r>    1.7146    1.0000 </r>
       <r>    1.7160    1.0000 </r>
       <r>    1.7175    1.0000 </r>
       <r>    2.2655    1.0000 </r>
       <r>    2.2677    1.0000 </r>
       <r>    2.2699    1.0000 </r>
       <r>    2.3668    1.0000 </r>
       <r>    2.3691    1.0000 </r>
       <r>    2.3708    1.0000 </r>
       <r>    2.3711    1.0000 </r>
       <r>    2.3728    1.0000 </r>
       <r>    2.3751    1.0000 </r>
       <r>    2.4217    1.0000 </r>
       <r>    2.4248    1.0000 </r>
       <r>    2.4281    1.0000 </r>
       <r>    2.7298    1.0000 </r>
       <r>    2.7325    1.0000 </r>
       <r>    2.7343    1.0000 </r>
       <r>    2.7356    1.0000 </r>
       <r>    2.7373    1.0000 </r>
       <r>    2.7400    1.0000 </r>
       <r>    2.9975    1.0000 </r>
       <r>    2.9993    1.0000 </r>
       <r>    3.0012    1.0000 </r>
       <r>    3.0122    1.0000 </r>
       <r>    3.0134    1.0000 </r>
       <r>    3.0147    1.0000 </r>
       <r>    3.3582    1.0000 </r>
       <r>    3.3620    1.0000 </r>
       <r>    3.3652    1.0000 </r>
       <r>    3.3797    1.0000 </r>
       <r>    3.3846    1.0000 </r>
       <r>    3.3892    1.0000 </r>
       <r>    3.4648    1.0000 </r>
       <r>    3.4666    1.0000 </r>
       <r>    3.4685    1.0000 </r>
       <r>    3.7327    1.0000 </r>
       <r>    3.7387    1.0000 </r>
       <r>    3.7411    1.0000 </r>
       <r>    3.7415    1.0000 </r>
       <r>    3.7438    1.0000 </r>
       <r>    3.7498    1.0000 </r>
       <r>    3.7787    1.0000 </r>
       <r>    3.7806    1.0000 </r>
       <r>    3.7831    1.0000 </r>
       <r>    4.0405    1.0000 </r>
       <r>    4.0956    1.0000 </r>
       <r>    4.0979    1.0000 </r>
       <r>    4.1004    1.0000 </r>
       <r>    4.3391    1.0000 </r>
       <r>    4.3410    1.0000 </r>
       <r>    4.3430    1.0000 </r>
       <r>    4.4018    1.0000 </r>
       <r>    4.4056    1.0000 </r>
       <r>    4.4101    1.0000 </r>
       <r>    4.5628    1.0000 </r>
       <r>    4.5629    1.0000 </r>
       <r>    4.8674    1.0000 </r>
       <r>    4.8699    1.0000 </r>
       <r>    4.8727    1.0000 </r>
       <r>    5.3495    1.0000 </r>
       <r>    5.3496    1.0000 </r>
       <r>    6.5596    0.0000 </r>
       <r>    6.5635    0.0000 </r>
       <r>    6.5672    0.0000 </r>
       <r>    7.0001    0.0000 </r>
       <r>    7.0045    0.0000 </r>
       <r>    7.0088    0.0000 </r>
       <r>    7.2337    0.0000 </r>
       <r>    7.4871    0.0000 </r>
       <r>    7.4909    0.0000 </r>
       <r>    7.4943    0.0000 </r>
       <r>    7.6152    0.0000 </r>
       <r>    7.6196    0.0000 </r>
       <r>    7.6240    0.0000 </r>
       <r>    7.7760    0.0000 </r>
       <r>    7.7800    0.0000 </r>
       <r>    7.7831    0.0000 </r>
       <r>    7.7983    0.0000 </r>
       <r>    7.8012    0.0000 </r>
       <r>    7.8047    0.0000 </r>
       <r>    8.0240    0.0000 </r>
       <r>    8.0266    0.0000 </r>
       <r>    8.0305    0.0000 </r>
       <r>    8.0307    0.0000 </r>
       <r>    8.0343    0.0000 </r>
       <r>    8.0368    0.0000 </r>
       <r>    8.0814    0.0000 </r>
       <r>    8.2922    0.0000 </r>
       <r>    8.2950    0.0000 </r>
       <r>    8.2978    0.0000 </r>
       <r>    8.4957    0.0000 </r>
       <r>    8.4989    0.0000 </r>
       <r>    8.5019    0.0000 </r>
       <r>    8.5048    0.0000 </r>
       <r>    8.5084    0.0000 </r>
       <r>    8.5195    0.0000 </r>
       <r>    8.5467    0.0000 </r>
      </set>
      <set comment="kpoint 2">
       <r>   -5.9932    1.0000 </r>
       <r>   -5.4691    1.0000 </r>
       <r>   -5.4646    1.0000 </r>
       <r>   -5.4605    1.0000 </r>
       <r>   -4.9696    1.0000 </r>
       <r>   -4.9654    1.0000 </r>
       <r>   -4.9615    1.0000 </r>
       <r>   -4.5321    1.0000 </r>
       <r>   -4.4370    1.0000 </r>
       <r>   -4.4324    1.0000 </r>
       <r>   -4.4280    1.0000 </r>
       <r>   -4.0264    1.0000 </r>
       <r>   -4.0185    1.0000 </r>
       <r>   -4.0163    1.0000 </r>
       <r>   -4.0163    1.0000 </r>
       <r>   -4.0143    1.0000 </r>
       <r>   -4.0066    1.0000 </r>
       <r>   -3.8265    1.0000 </r>
       <r>   -3.8243    1.0000 </r>
       <r>   -3.8220    1.0000 </r>
       <r>   -3.3328    1.0000 </r>
       <r>   -3.3283    1.0000 </r>
       <r>   -3.3239    1.0000 </r>
       <r>   -2.9639    1.0000 </r>
       <r>   -2.9592    1.0000 </r>
       <r>   -2.9545    1.0000 </r>
       <r>   -2.7982    1.0000 </r>
       <r>   -2.7934    1.0000 </r>
       <r>   -2.7909    1.0000 </r>
       <r>   -2.7908    1.0000 </r>
       <r>   -2.7883    1.0000 </r>
       <r>   -2.7831    1.0000 </r>
       <r>   -1.2537    1.0000 </r>
       <r>   -1.2522    1.0000 </r>
       <r>   -1.2486    1.0000 </r>
       <r>   -1.2486    1.0000 </r>
       <r>   -1.2455    1.0000 </r>
       <r>   -1.2445    1.0000 </r>
       <r>   -1.1565    1.0000 </r>
       <r>   -1.1509    1.0000 </r>
       <r>   -1.1455    1.0000 </r>
       <r>   -1.0352    1.0000 </r>
       <r>   -1.0328    1.0000 </r>
       <r>   -1.0298    1.0000 </r>
       <r>   -0.9477    1.0000 </r>
       <r>   -0.9469    1.0000 </r>
       <r>   -0.9459    1.0000 </r>
       <r>   -0.2446    1.0000 </r>
       <r>   -0.1670    1.0000 </r>
       <r>   -0.1641    1.0000 </r>
       <r>   -0.1602    1.0000 </r>
       <r>   -0.1601    1.0000 </r>
       <r>   -0.1563    1.0000 </r>
       <r>   -0.1530    1.0000 </r>
       <r>    0.7131    1.0000 </r>
       <r>    0.7142    1.0000 </r>
       <r>    0.7155    1.0000 </r>
       <r>    1.0455    1.0000 </r>
       <r>    1.0470    1.0000 </r>
       <r>    1.0487    1.0000 </r>
       <r>    1.6522    1.0000 </r>
       <r>    1.6561    1.0000 </r>
       <r>    1.6570    1.0000 </r>
       <r>    1.6571    1.0000 </r>
       <r>    1.6579    1.0000 </r>
       <r>    1.6617    1.0000 </r>
       <r>    1.7157    1.0000 </r>
       <r>    1.7158    1.0000 </r>
       <r>    1.7163    1.0000 </r>
       <r>    2.2653    1.0000 </r>
       <r>    2.2679    1.0000 </r>
       <r>    2.2702    1.0000 </r>
       <r>    2.3651    1.0000 </r>
       <r>    2.3704    1.0000 </r>
       <r>    2.3710    1.0000 </r>
       <r>    2.3710    1.0000 </r>
       <r>    2.3716    1.0000 </r>
       <r>    2.3765    1.0000 </r>
       <r>    2.4224    1.0000 </r>
       <r>    2.4247    1.0000 </r>
       <r>    2.4278    1.0000 </r>
       <r>    2.7292    1.0000 </r>
       <r>    2.7344    1.0000 </r>
       <r>    2.7349    1.0000 </r>
       <r>    2.7350    1.0000 </r>
       <r>    2.7354    1.0000 </r>
       <r>    2.7407    1.0000 </r>
       <r>    2.9981    1.0000 </r>
       <r>    2.9993    1.0000 </r>
       <r>    2.9995    1.0000 </r>
       <r>    3.0117    1.0000 </r>
       <r>    3.0147    1.0000 </r>
       <r>    3.0151    1.0000 </r>
       <r>    3.3595    1.0000 </r>
       <r>    3.3621    1.0000 </r>
       <r>    3.3644    1.0000 </r>
       <r>    3.3816    1.0000 </r>
       <r>    3.3841    1.0000 </r>
       <r>    3.3872    1.0000 </r>
       <r>    3.4658    1.0000 </r>
       <r>    3.4668    1.0000 </r>
       <r>    3.4675    1.0000 </r>
       <r>    3.7370    1.0000 </r>
       <r>    3.7396    1.0000 </r>
       <r>    3.7410    1.0000 </r>
       <r>    3.7413    1.0000 </r>
       <r>    3.7427    1.0000 </r>
       <r>    3.7458    1.0000 </r>
       <r>    3.7797    1.0000 </r>
       <r>    3.7811    1.0000 </r>
       <r>    3.7813    1.0000 </r>
       <r>    4.0405    1.0000 </r>
       <r>    4.0978    1.0000 </r>
       <r>    4.0980    1.0000 </r>
       <r>    4.0981    1.0000 </r>
       <r>    4.3402    1.0000 </r>
       <r>    4.3412    1.0000 </r>
       <r>    4.3420    1.0000 </r>
       <r>    4.4049    1.0000 </r>
       <r>    4.4056    1.0000 </r>
       <r>    4.4064    1.0000 </r>
       <r>    4.5629    1.0000 </r>
       <r>    4.5630    1.0000 </r>
       <r>    4.8692    1.0000 </r>
       <r>    4.8701    1.0000 </r>
       <r>    4.8709    1.0000 </r>
       <r>    5.3496    1.0000 </r>
       <r>    5.3498    1.0000 </r>
       <r>    6.5629    0.0000 </r>
       <r>    6.5635    0.0000 </r>
       <r>    6.5638    0.0000 </r>
       <r>    7.0025    0.0000 </r>
       <r>    7.0045    0.0000 </r>
       <r>    7.0064    0.0000 </r>
       <r>    7.2337    0.0000 </r>
       <r>    7.4886    0.0000 </r>
       <r>    7.4907    0.0000 </r>
       <r>    7.4926    0.0000 </r>
       <r>    7.6166    0.0000 </r>
       <r>    7.6197    0.0000 </r>
       <r>    7.6226    0.0000 </r>
       <r>    7.7764    0.0000 </r>
       <r>    7.7800    0.0000 </r>
       <r>    7.7832    0.0000 </r>
       <r>    7.8008    0.0000 </r>
       <r>    7.8011    0.0000 </r>
       <r>    7.8018    0.0000 </r>
       <r>    8.0255    0.0000 </r>
       <r>    8.0280    0.0000 </r>
       <r>    8.0306    0.0000 </r>
       <r>    8.0307    0.0000 </r>
       <r>    8.0333    0.0000 </r>
       <r>    8.0354    0.0000 </r>
       <r>    8.0814    0.0000 </r>
       <r>    8.2933    0.0000 </r>
       <r>    8.2950    0.0000 </r>
       <r>    8.2967    0.0000 </r>
       <r>    8.4935    0.0000 </r>
       <r>    8.5016    0.0000 </r>
       <r>    8.5019    0.0000 </r>
       <r>    8.5042    0.0000 </r>
       <r>    8.5164    0.0000 </r>
       <r>    8.5383    0.0000 </r>
       <r>    8.5412    0.0000 </r>
      </set>
      <set comment="kpoint 3">
       <r>   -5.9932    1.0000 </r>
       <r>   -5.4678    1.0000 </r>
       <r>   -5.4646    1.0000 </r>
       <r>   -5.4618    1.0000 </r>
       <r>   -4.9686    1.0000 </r>
       <r>   -4.9654    1.0000 </r>
       <r>   -4.9625    1.0000 </r>
       <r>   -4.5323    1.0000 </r>
       <r>   -4.4358    1.0000 </r>
       <r>   -4.4324    1.0000 </r>
       <r>   -4.4289    1.0000 </r>
       <r>   -4.0187    1.0000 </r>
       <r>   -4.0186    1.0000 </r>
       <r>   -4.0164    1.0000 </r>
       <r>   -4.0163    1.0000 </r>
       <r>   -4.0142    1.0000 </r>
       <r>   -4.0141    1.0000 </r>
       <r>   -3.8244    1.0000 </r>
       <r>   -3.8244    1.0000 </r>
       <r>   -3.8243    1.0000 </r>
       <r>   -3.3334    1.0000 </r>
       <r>   -3.3283    1.0000 </r>
       <r>   -3.3233    1.0000 </r>
       <r>   -2.9592    1.0000 </r>
       <r>   -2.9591    1.0000 </r>
       <r>   -2.9589    1.0000 </r>
       <r>   -2.7936    1.0000 </r>
       <r>   -2.7919    1.0000 </r>
       <r>   -2.7909    1.0000 </r>
       <r>   -2.7909    1.0000 </r>
       <r>   -2.7896    1.0000 </r>
       <r>   -2.7881    1.0000 </r>
       <r>   -1.2524    1.0000 </r>
       <r>   -1.2498    1.0000 </r>
       <r>   -1.2488    1.0000 </r>
       <r>   -1.2486    1.0000 </r>
       <r>   -1.2477    1.0000 </r>
       <r>   -1.2453    1.0000 </r>
       <r>   -1.1515    1.0000 </r>
       <r>   -1.1510    1.0000 </r>
       <r>   -1.1510    1.0000 </r>
       <r>   -1.0331    1.0000 </r>
       <r>   -1.0328    1.0000 </r>
       <r>   -1.0324    1.0000 </r>
       <r>   -0.9505    1.0000 </r>
       <r>   -0.9468    1.0000 </r>
       <r>   -0.9426    1.0000 </r>
       <r>   -0.2447    1.0000 </r>
       <r>   -0.1646    1.0000 </r>
       <r>   -0.1629    1.0000 </r>
       <r>   -0.1602    1.0000 </r>
       <r>   -0.1601    1.0000 </r>
       <r>   -0.1570    1.0000 </r>
       <r>   -0.1558    1.0000 </r>
       <r>    0.7116    1.0000 </r>
       <r>    0.7143    1.0000 </r>
       <r>    0.7171    1.0000 </r>
       <r>    1.0448    1.0000 </r>
       <r>    1.0470    1.0000 </r>
       <r>    1.0495    1.0000 </r>
       <r>    1.6540    1.0000 </r>
       <r>    1.6552    1.0000 </r>
       <r>    1.6565    1.0000 </r>
       <r>    1.6571    1.0000 </r>
       <r>    1.6587    1.0000 </r>
       <r>    1.6599    1.0000 </r>
       <r>    1.7139    1.0000 </r>
       <r>    1.7160    1.0000 </r>
       <r>    1.7187    1.0000 </r>
       <r>    2.2662    1.0000 </r>
       <r>    2.2678    1.0000 </r>
       <r>    2.2692    1.0000 </r>
       <r>    2.3659    1.0000 </r>
       <r>    2.3664    1.0000 </r>
       <r>    2.3710    1.0000 </r>
       <r>    2.3710    1.0000 </r>
       <r>    2.3748    1.0000 </r>
       <r>    2.3751    1.0000 </r>
       <r>    2.4240    1.0000 </r>
       <r>    2.4258    1.0000 </r>
       <r>    2.4260    1.0000 </r>
       <r>    2.7309    1.0000 </r>
       <r>    2.7340    1.0000 </r>
       <r>    2.7349    1.0000 </r>
       <r>    2.7350    1.0000 </r>
       <r>    2.7360    1.0000 </r>
       <r>    2.7389    1.0000 </r>
       <r>    2.9973    1.0000 </r>
       <r>    2.9992    1.0000 </r>
       <r>    3.0008    1.0000 </r>
       <r>    3.0112    1.0000 </r>
       <r>    3.0142    1.0000 </r>
       <r>    3.0158    1.0000 </r>
       <r>    3.3606    1.0000 </r>
       <r>    3.3622    1.0000 </r>
       <r>    3.3632    1.0000 </r>
       <r>    3.3826    1.0000 </r>
       <r>    3.3842    1.0000 </r>
       <r>    3.3866    1.0000 </r>
       <r>    3.4644    1.0000 </r>
       <r>    3.4666    1.0000 </r>
       <r>    3.4687    1.0000 </r>
       <r>    3.7373    1.0000 </r>
       <r>    3.7400    1.0000 </r>
       <r>    3.7411    1.0000 </r>
       <r>    3.7414    1.0000 </r>
       <r>    3.7427    1.0000 </r>
       <r>    3.7456    1.0000 </r>
       <r>    3.7781    1.0000 </r>
       <r>    3.7807    1.0000 </r>
       <r>    3.7830    1.0000 </r>
       <r>    4.0406    1.0000 </r>
       <r>    4.0951    1.0000 </r>
       <r>    4.0979    1.0000 </r>
       <r>    4.1005    1.0000 </r>
       <r>    4.3384    1.0000 </r>
       <r>    4.3410    1.0000 </r>
       <r>    4.3439    1.0000 </r>
       <r>    4.4019    1.0000 </r>
       <r>    4.4056    1.0000 </r>
       <r>    4.4097    1.0000 </r>
       <r>    4.5628    1.0000 </r>
       <r>    4.5629    1.0000 </r>
       <r>    4.8666    1.0000 </r>
       <r>    4.8700    1.0000 </r>
       <r>    4.8736    1.0000 </r>
       <r>    5.3495    1.0000 </r>
       <r>    5.3497    1.0000 </r>
       <r>    6.5628    0.0000 </r>
       <r>    6.5635    0.0000 </r>
       <r>    6.5640    0.0000 </r>
       <r>    7.0036    0.0000 </r>
       <r>    7.0045    0.0000 </r>
       <r>    7.0053    0.0000 </r>
       <r>    7.2338    0.0000 </r>
       <r>    7.4907    0.0000 </r>
       <r>    7.4907    0.0000 </r>
       <r>    7.4909    0.0000 </r>
       <r>    7.6194    0.0000 </r>
       <r>    7.6197    0.0000 </r>
       <r>    7.6198    0.0000 </r>
       <r>    7.7776    0.0000 </r>
       <r>    7.7801    0.0000 </r>
       <r>    7.7819    0.0000 </r>
       <r>    7.7986    0.0000 </r>
       <r>    7.8009    0.0000 </r>
       <r>    7.8039    0.0000 </r>
       <r>    8.0270    0.0000 </r>
       <r>    8.0295    0.0000 </r>
       <r>    8.0306    0.0000 </r>
       <r>    8.0307    0.0000 </r>
       <r>    8.0319    0.0000 </r>
       <r>    8.0336    0.0000 </r>
       <r>    8.0818    0.0000 </r>
       <r>    8.2947    0.0000 </r>
       <r>    8.2950    0.0000 </r>
       <r>    8.2954    0.0000 </r>
       <r>    8.4944    0.0000 </r>
       <r>    8.5004    0.0000 </r>
       <r>    8.5019    0.0000 </r>
       <r>    8.5040    0.0000 </r>
       <r>    8.5085    0.0000 </r>
       <r>    8.5345    0.0000 </r>
       <r>    8.5569    0.0000 </r>
      </set>
     </set>
    </set>
   </array>
  </eigenvalues>
  <separator name="orbital magnetization" >
   <v name="MAGDIPOLOUT">      0.00000000      0.00000000      0.00000000</v>
  </separator>
  <dos>
   <i name="efermi">      5.60654107 </i>
   <total>
    <array>
     <dimension dim="1">gridpoints</dimension>
     <dimension dim="2">spin</dimension>
     <field>energy</field>
     <field>total</field>
     <field>integrated</field>
     <set>
      <set comment="spin 1">
       <r>    -6.7207     0.0000     0.0000 </r>
       <r>    -6.6673     0.0000     0.0000 </r>
       <r>    -6.6140     0.0000     0.0000 </r>
       <r>    -6.5606     0.0000     0.0000 </r>
       <r>    -6.5073     0.0000     0.0000 </r>
       <r>    -6.4539     0.0000     0.0000 </r>
       <r>    -6.4006     0.0000     0.0000 </r>
       <r>    -6.3472     0.0000     0.0000 </r>
       <r>    -6.2939     0.0000     0.0000 </r>
       <r>    -6.2405     0.0000     0.0000 </r>
       <r>    -6.1872     0.0000     0.0000 </r>
       <r>    -6.1338     0.0013     0.0001 </r>
       <r>    -6.0805     0.2524     0.0135 </r>
       <r>    -6.0271     6.0605     0.3369 </r>
       <r>    -5.9738    20.2408     1.4167 </r>
       <r>    -5.9204    10.1903     1.9604 </r>
       <r>    -5.8671     0.7361     1.9996 </r>
       <r>    -5.8137     0.0068     2.0000 </r>
       <r>    -5.7604     0.0000     2.0000 </r>
       <r>    -5.7070     0.0000     2.0000 </r>
       <r>    -5.6537     0.0000     2.0000 </r>
       <r>    -5.6003     0.0075     2.0004 </r>
       <r>    -5.5470     1.1470     2.0616 </r>
       <r>    -5.4936    22.2390     3.2480 </r>
       <r>    -5.4403    61.4985     6.5290 </r>
       <r>    -5.3869    25.9807     7.9151 </r>
       <r>    -5.3336     1.5796     7.9993 </r>
       <r>    -5.2802     0.0123     8.0000 </r>
       <r>    -5.2269     0.0000     8.0000 </r>
       <r>    -5.1735     0.0000     8.0000 </r>
       <r>    -5.1202     0.0007     8.0000 </r>
       <r>    -5.0668     0.2407     8.0129 </r>
       <r>    -5.0135     9.6748     8.5290 </r>
       <r>    -4.9601    53.0880    11.3613 </r>
       <r>    -4.9068    43.9555    13.7063 </r>
       <r>    -4.8534     5.4158    13.9952 </r>
       <r>    -4.8001     0.0889    14.0000 </r>
       <r>    -4.7467     0.0002    14.0000 </r>
       <r>    -4.6934     0.0001    14.0000 </r>
       <r>    -4.6400     0.0428    14.0023 </r>
       <r>    -4.5867     2.2687    14.1233 </r>
       <r>    -4.5333    16.2035    14.9878 </r>
       <r>    -4.4800    26.5067    16.4019 </r>
       <r>    -4.4266    55.9553    19.3871 </r>
       <r>    -4.3733    43.5978    21.7131 </r>
       <r>    -4.3199     5.2921    21.9954 </r>
       <r>    -4.2666     0.0858    22.0000 </r>
       <r>    -4.2132     0.0002    22.0000 </r>
       <r>    -4.1599     0.0065    22.0003 </r>
       <r>    -4.1065     1.2914    22.0692 </r>
       <r>    -4.0532    32.7659    23.8173 </r>
       <r>    -3.9998   118.7155    30.1508 </r>
       <r>    -3.9465    66.5786    33.7028 </r>
       <r>    -3.8931     8.4554    34.1539 </r>
       <r>    -3.8398    34.3703    35.9875 </r>
       <r>    -3.7864    59.1306    39.1421 </r>
       <r>    -3.7331    15.5087    39.9695 </r>
       <r>    -3.6797     0.5684    39.9999 </r>
       <r>    -3.6264     0.0026    40.0000 </r>
       <r>    -3.5730     0.0000    40.0000 </r>
       <r>    -3.5197     0.0000    40.0000 </r>
       <r>    -3.4663     0.0057    40.0003 </r>
       <r>    -3.4130     0.9583    40.0514 </r>
       <r>    -3.3596    20.2992    41.1344 </r>
       <r>    -3.3063    61.1352    44.3960 </r>
       <r>    -3.2529    28.1689    45.8988 </r>
       <r>    -3.1996     1.8811    45.9991 </r>
       <r>    -3.1462     0.0162    46.0000 </r>
       <r>    -3.0929     0.0094    46.0005 </r>
       <r>    -3.0395     1.3250    46.0712 </r>
       <r>    -2.9862    23.8356    47.3428 </r>
       <r>    -2.9328    61.5658    50.6274 </r>
       <r>    -2.8795    25.7737    52.0024 </r>
       <r>    -2.8261    36.0995    53.9283 </r>
       <r>    -2.7728   119.9123    60.3256 </r>
       <r>    -2.7194    63.8111    63.7300 </r>
       <r>    -2.6661     5.0096    63.9972 </r>
       <r>    -2.6127     0.0518    64.0000 </r>
       <r>    -2.5594     0.0001    64.0000 </r>
       <r>    -2.5060     0.0000    64.0000 </r>
       <r>    -2.4527     0.0000    64.0000 </r>
       <r>    -2.3993     0.0000    64.0000 </r>
       <r>    -2.3460     0.0000    64.0000 </r>
       <r>    -2.2926     0.0000    64.0000 </r>
       <r>    -2.2393     0.0000    64.0000 </r>
       <r>    -2.1859     0.0000    64.0000 </r>
       <r>    -2.1326     0.0000    64.0000 </r>
       <r>    -2.0792     0.0000    64.0000 </r>
       <r>    -2.0259     0.0000    64.0000 </r>
       <r>    -1.9725     0.0000    64.0000 </r>
       <r>    -1.9192     0.0000    64.0000 </r>
       <r>    -1.8658     0.0000    64.0000 </r>
       <r>    -1.8125     0.0000    64.0000 </r>
       <r>    -1.7591     0.0000    64.0000 </r>
       <r>    -1.7058     0.0000    64.0000 </r>
       <r>    -1.6524     0.0000    64.0000 </r>
       <r>    -1.5991     0.0000    64.0000 </r>
       <r>    -1.5457     0.0000    64.0000 </r>
       <r>    -1.4924     0.0000    64.0000 </r>
       <r>    -1.4390     0.0000    64.0000 </r>
       <r>    -1.3857     0.0133    64.0007 </r>
       <r>    -1.3323     2.1048    64.1130 </r>
       <r>    -1.2790    42.4824    66.3794 </r>
       <r>    -1.2256   124.5454    73.0240 </r>
       <r>    -1.1723    83.1576    77.4604 </r>
       <r>    -1.1189    65.2990    80.9441 </r>
       <r>    -1.0656    38.8549    83.0170 </r>
       <r>    -1.0122    65.4641    86.5096 </r>
       <r>    -0.9589    67.0769    90.0881 </r>
       <r>    -0.9055    59.4793    93.2613 </r>
       <r>    -0.8522    13.4084    93.9767 </r>
       <r>    -0.7988     0.4352    93.9999 </r>
       <r>    -0.7455     0.0018    94.0000 </r>
       <r>    -0.6921     0.0000    94.0000 </r>
       <r>    -0.6388     0.0000    94.0000 </r>
       <r>    -0.5854     0.0000    94.0000 </r>
       <r>    -0.5321     0.0000    94.0000 </r>
       <r>    -0.4787     0.0000    94.0000 </r>
       <r>    -0.4254     0.0000    94.0000 </r>
       <r>    -0.3720     0.0059    94.0003 </r>
       <r>    -0.3187     0.6742    94.0363 </r>
       <r>    -0.2653    10.1363    94.5771 </r>
       <r>    -0.2120    36.3473    96.5162 </r>
       <r>    -0.1586   106.3353   102.1892 </r>
       <r>    -0.1053    95.0647   107.2609 </r>
       <r>    -0.0519    13.5883   107.9858 </r>
       <r>     0.0014     0.2649   108.0000 </r>
       <r>     0.0548     0.0006   108.0000 </r>
       <r>     0.1081     0.0000   108.0000 </r>
       <r>     0.1615     0.0000   108.0000 </r>
       <r>     0.2148     0.0000   108.0000 </r>
       <r>     0.2682     0.0000   108.0000 </r>
       <r>     0.3215     0.0000   108.0000 </r>
       <r>     0.3749     0.0000   108.0000 </r>
       <r>     0.4282     0.0000   108.0000 </r>
       <r>     0.4816     0.0000   108.0000 </r>
       <r>     0.5349     0.0000   108.0000 </r>
       <r>     0.5883     0.0216   108.0012 </r>
       <r>     0.6416     2.2631   108.1219 </r>
       <r>     0.6950    30.7080   109.7602 </r>
       <r>     0.7483    60.5216   112.9890 </r>
       <r>     0.8017    18.1774   113.9588 </r>
       <r>     0.8550     0.7689   113.9998 </r>
       <r>     0.9084     0.0091   114.0003 </r>
       <r>     0.9617     0.8865   114.0476 </r>
       <r>     1.0151    19.6733   115.0971 </r>
       <r>     1.0684    61.1762   118.3609 </r>
       <r>     1.1218    28.7681   119.8957 </r>
       <r>     1.1751     1.9389   119.9991 </r>
       <r>     1.2285     0.0166   120.0000 </r>
       <r>     1.2818     0.0000   120.0000 </r>
       <r>     1.3352     0.0000   120.0000 </r>
       <r>     1.3885     0.0000   120.0000 </r>
       <r>     1.4419     0.0000   120.0000 </r>
       <r>     1.4952     0.0006   120.0000 </r>
       <r>     1.5486     0.2507   120.0134 </r>
       <r>     1.6019    13.3796   120.7272 </r>
       <r>     1.6553    99.4184   126.0312 </r>
       <r>     1.7086   142.4979   133.6335 </r>
       <r>     1.7620    70.5946   137.3997 </r>
       <r>     1.8153    10.9699   137.9849 </r>
       <r>     1.8687     0.2814   138.0000 </r>
       <r>     1.9220     0.0009   138.0000 </r>
       <r>     1.9754     0.0000   138.0000 </r>
       <r>     2.0287     0.0000   138.0000 </r>
       <r>     2.0821     0.0000   138.0000 </r>
       <r>     2.1354     0.0105   138.0006 </r>
       <r>     2.1888     1.4384   138.0773 </r>
       <r>     2.2421    25.0087   139.4115 </r>
       <r>     2.2955    65.4730   142.9045 </r>
       <r>     2.3489    81.1992   147.2365 </r>
       <r>     2.4022   151.0294   155.2939 </r>
       <r>     2.4556   101.9487   160.7329 </r>
       <r>     2.5089    22.7357   161.9459 </r>
       <r>     2.5623     1.0089   161.9997 </r>
       <r>     2.6156     0.0928   162.0046 </r>
       <r>     2.6690     6.9984   162.3780 </r>
       <r>     2.7223    74.1015   166.3313 </r>
       <r>     2.7757   115.4856   172.4925 </r>
       <r>     2.8290    27.3533   173.9518 </r>
       <r>     2.8824     0.9656   174.0033 </r>
       <r>     2.9357     5.5895   174.3015 </r>
       <r>     2.9891    65.3438   177.7876 </r>
       <r>     3.0424   118.0847   184.0874 </r>
       <r>     3.0958    34.3538   185.9202 </r>
       <r>     3.1491     1.4869   185.9995 </r>
       <r>     3.2025     0.0089   186.0000 </r>
       <r>     3.2558     0.1703   186.0091 </r>
       <r>     3.3092     9.4069   186.5110 </r>
       <r>     3.3625    77.7325   190.6580 </r>
       <r>     3.4159   117.7682   196.9409 </r>
       <r>     3.4692    78.2513   201.1157 </r>
       <r>     3.5226    47.6475   203.6577 </r>
       <r>     3.5759     6.3040   203.9940 </r>
       <r>     3.6293     0.2990   204.0099 </r>
       <r>     3.6826    11.2909   204.6123 </r>
       <r>     3.7360    99.2119   209.9053 </r>
       <r>     3.7893   161.3366   218.5126 </r>
       <r>     3.8427    60.3709   221.7334 </r>
       <r>     3.8960     4.9335   221.9966 </r>
       <r>     3.9494     0.2511   222.0100 </r>
       <r>     4.0027     5.5488   222.3060 </r>
       <r>     4.0561    32.6786   224.0494 </r>
       <r>     4.1094    68.6219   227.7104 </r>
       <r>     4.1628    39.1324   229.7981 </r>
       <r>     4.2161     3.7598   229.9987 </r>
       <r>     4.2695     2.4499   230.1294 </r>
       <r>     4.3228    32.7242   231.8753 </r>
       <r>     4.3762    81.9436   236.2469 </r>
       <r>     4.4295    78.8353   240.4528 </r>
       <r>     4.4829    28.2078   241.9577 </r>
       <r>     4.5362    17.6731   242.9006 </r>
       <r>     4.5896    41.2083   245.0990 </r>
       <r>     4.6429    16.0029   245.9528 </r>
       <r>     4.6963     0.8787   245.9997 </r>
       <r>     4.7496     0.0440   246.0020 </r>
       <r>     4.8030     3.2430   246.1750 </r>
       <r>     4.8563    36.0198   248.0967 </r>
       <r>     4.9097    58.3779   251.2112 </r>
       <r>     4.9630    14.2997   251.9741 </r>
       <r>     5.0164     0.4842   251.9999 </r>
       <r>     5.0697     0.0020   252.0000 </r>
       <r>     5.1231     0.0000   252.0000 </r>
       <r>     5.1764     0.0000   252.0000 </r>
       <r>     5.2298     0.0261   252.0014 </r>
       <r>     5.2831     2.2210   252.1199 </r>
       <r>     5.3365    24.3585   253.4194 </r>
       <r>     5.3898    38.7866   255.4887 </r>
       <r>     5.4432     9.2785   255.9837 </r>
       <r>     5.4965     0.3044   255.9999 </r>
       <r>     5.5499     0.0012   256.0000 </r>
       <r>     5.6032     0.0000   256.0000 </r>
       <r>     5.6566     0.0000   256.0000 </r>
       <r>     5.7099     0.0000   256.0000 </r>
       <r>     5.7633     0.0000   256.0000 </r>
       <r>     5.8166     0.0000   256.0000 </r>
       <r>     5.8700     0.0000   256.0000 </r>
       <r>     5.9233     0.0000   256.0000 </r>
       <r>     5.9767     0.0000   256.0000 </r>
       <r>     6.0300     0.0000   256.0000 </r>
       <r>     6.0834     0.0000   256.0000 </r>
       <r>     6.1367     0.0000   256.0000 </r>
       <r>     6.1901     0.0000   256.0000 </r>
       <r>     6.2434     0.0000   256.0000 </r>
       <r>     6.2968     0.0000   256.0000 </r>
       <r>     6.3501     0.0000   256.0000 </r>
       <r>     6.4035     0.0004   256.0000 </r>
       <r>     6.4568     0.1467   256.0078 </r>
       <r>     6.5102     7.3127   256.3980 </r>
       <r>     6.5635    48.8783   259.0056 </r>
       <r>     6.6169    48.7350   261.6057 </r>
       <r>     6.6702     7.2469   261.9923 </r>
       <r>     6.7236     0.1444   262.0000 </r>
       <r>     6.7769     0.0003   262.0000 </r>
       <r>     6.8303     0.0001   262.0000 </r>
       <r>     6.8836     0.0366   262.0020 </r>
       <r>     6.9370     3.1613   262.1706 </r>
       <r>     6.9903    35.5716   264.0684 </r>
       <r>     7.0437    58.5621   267.1927 </r>
       <r>     7.0970    14.6256   267.9729 </r>
       <r>     7.1504     0.8497   268.0183 </r>
       <r>     7.2037     7.0798   268.3960 </r>
       <r>     7.2571    20.5221   269.4908 </r>
       <r>     7.3104     8.9802   269.9699 </r>
       <r>     7.3638     0.5783   270.0008 </r>
       <r>     7.4171     2.1020   270.1129 </r>
       <r>     7.4705    29.7563   271.7004 </r>
       <r>     7.5238    61.2583   274.9686 </r>
       <r>     7.5772    31.5228   276.6503 </r>
       <r>     7.6305    57.6251   279.7246 </r>
       <r>     7.6839    39.1468   281.8131 </r>
       <r>     7.7372    20.3335   282.8979 </r>
       <r>     7.7906    95.6678   288.0018 </r>
       <r>     7.8439    95.5926   293.1016 </r>
       <r>     7.8973    16.4276   293.9781 </r>
       <r>     7.9506     3.1722   294.1473 </r>
       <r>     8.0040    48.9023   296.7562 </r>
       <r>     8.0573   131.7809   303.7868 </r>
       <r>     8.1107    68.5813   307.4456 </r>
       <r>     8.1640    10.0171   307.9800 </r>
       <r>     8.2174     1.9618   308.0847 </r>
       <r>     8.2707    26.1013   309.4772 </r>
       <r>     8.3241    61.6157   312.7644 </r>
       <r>     8.3774    22.0852   313.9426 </r>
       <r>     8.4308     5.4803   314.2350 </r>
       <r>     8.4841    58.5540   317.3589 </r>
       <r>     8.5375   131.0492   324.3504 </r>
       <r>     8.5908    61.2637   327.6188 </r>
       <r>     8.6442     6.9780   327.9911 </r>
       <r>     8.6975     0.1670   328.0000 </r>
       <r>     8.7509     0.0006   328.0000 </r>
       <r>     8.8042     0.0000   328.0000 </r>
       <r>     8.8576     0.0000   328.0000 </r>
       <r>     8.9109     0.0000   328.0000 </r>
       <r>     8.9643     0.0000   328.0000 </r>
       <r>     9.0176     0.0000   328.0000 </r>
       <r>     9.0710     0.0000   328.0000 </r>
       <r>     9.1243     0.0000   328.0000 </r>
       <r>     9.1777     0.0000   328.0000 </r>
       <r>     9.2310     0.0000   328.0000 </r>
       <r>     9.2844     0.0000   328.0000 </r>
      </set>
     </set>
    </array>
   </total>
  </dos>
 </calculation>
 <structure name="finalpos" >
  <crystal>
   <varray name="basis" >
    <v>      10.93252578       0.00000000       0.00000000 </v>
    <v>       0.00000000      10.93252578       0.00000000 </v>
    <v>       0.00000000       0.00000000      10.93252578 </v>
   </varray>
   <i name="volume">   1306.65679237 </i>
   <varray name="rec_basis" >
    <v>       0.09147017       0.00000000       0.00000000 </v>
    <v>       0.00000000       0.09147017       0.00000000 </v>
    <v>       0.00000000       0.00000000       0.09147017 </v>
   </varray>
  </crystal>
  <varray name="positions" >
   <v>       0.44024411       0.43750000       0.43750000 </v>
   <v>       0.93750000       0.43750000       0.43750000 </v>
   <v>       0.43750000       0.93750000       0.43750000 </v>
   <v>       0.93750000       0.93750000       0.43750000 </v>
   <v>       0.43750000       0.43750000       0.93750000 </v>
   <v>       0.93750000       0.43750000       0.93750000 </v>
   <v>       0.43750000       0.93750000       0.93750000 </v>
   <v>       0.93750000       0.93750000       0.93750000 </v>
   <v>       0.43750000       0.18750000       0.18750000 </v>
   <v>       0.93750000       0.18750000       0.18750000 </v>
   <v>       0.43750000       0.68750000       0.18750000 </v>
   <v>       0.93750000       0.68750000       0.18750000 </v>
   <v>       0.43750000       0.18750000       0.68750000 </v>
   <v>       0.93750000       0.18750000       0.68750000 </v>
   <v>       0.43750000       0.68750000       0.68750000 </v>
   <v>       0.93750000       0.68750000       0.68750000 </v>
   <v>       0.18750000       0.43750000       0.18750000 </v>
   <v>       0.68750000       0.43750000       0.18750000 </v>
   <v>       0.18750000       0.93750000       0.18750000 </v>
   <v>       0.68750000       0.93750000       0.18750000 </v>
   <v>       0.18750000       0.43750000       0.68750000 </v>
   <v>       0.68750000       0.43750000       0.68750000 </v>
   <v>       0.18750000       0.93750000       0.68750000 </v>
   <v>       0.68750000       0.93750000       0.68750000 </v>
   <v>       0.18750000       0.18750000       0.43750000 </v>
   <v>       0.68750000       0.18750000       0.43750000 </v>
   <v>       0.18750000       0.68750000       0.43750000 </v>
   <v>       0.68750000       0.68750000       0.43750000 </v>
   <v>       0.18750000       0.18750000       0.93750000 </v>
   <v>       0.68750000       0.18750000       0.93750000 </v>
   <v>       0.18750000       0.68750000       0.93750000 </v>
   <v>       0.68750000       0.68750000       0.93750000 </v>
   <v>       0.06250000       0.06250000       0.06250000 </v>
   <v>       0.56250000       0.06250000       0.06250000 </v>
   <v>       0.06250000       0.56250000       0.06250000 </v>
   <v>       0.56250000       0.56250000       0.06250000 </v>
   <v>       0.06250000       0.06250000       0.56250000 </v>
   <v>       0.56250000       0.06250000       0.56250000 </v>
   <v>       0.06250000       0.56250000       0.56250000 </v>
   <v>       0.56250000       0.56250000       0.56250000 </v>
   <v>       0.06250000       0.31250000       0.31250000 </v>
   <v>       0.56250000       0.31250000       0.31250000 </v>
   <v>       0.06250000       0.81250000       0.31250000 </v>
   <v>       0.56250000       0.81250000       0.31250000 </v>
   <v>       0.06250000       0.31250000       0.81250000 </v>
   <v>       0.56250000       0.31250000       0.81250000 </v>
   <v>       0.06250000       0.81250000       0.81250000 </v>
   <v>       0.56250000       0.81250000       0.81250000 </v>
   <v>       0.31250000       0.06250000       0.31250000 </v>
   <v>       0.81250000       0.06250000       0.31250000 </v>
   <v>       0.31524411       0.56250000       0.31250000 </v>
   <v>       0.81250000       0.56250000       0.31250000 </v>
   <v>       0.31250000       0.06250000       0.81250000 </v>
   <v>       0.81250000       0.06250000       0.81250000 </v>
   <v>       0.31250000       0.56250000       0.81250000 </v>
   <v>       0.81250000       0.56250000       0.81250000 </v>
   <v>       0.31250000       0.31250000       0.06250000 </v>
   <v>       0.81250000       0.31250000       0.06250000 </v>
   <v>       0.31250000       0.81250000       0.06250000 </v>
   <v>       0.81250000       0.81250000       0.06250000 </v>
   <v>       0.31250000       0.31250000       0.56250000 </v>
   <v>       0.81250000       0.31250000       0.56250000 </v>
   <v>       0.31250000       0.81250000       0.56250000 </v>
   <v>       0.81250000       0.81250000       0.56250000 </v>
  </varray>
 </structure>
</modeling>
