<?xml version="1.0" encoding="ISO-8859-1"?>
<modeling>
 <generator>
  <i name="program" type="string">vasp </i>
  <i name="version" type="string">5.4.1  </i>
  <i name="subversion" type="string">05Feb16 (build Mar 26 2016 11:58:25) complex                          parallel </i>
  <i name="platform" type="string">IFC91_ompi </i>
  <i name="date" type="string">2017 03 12 </i>
  <i name="time" type="string">12:17:11 </i>
 </generator>
 <incar>
  <i type="string" name="PREC">accurate</i>
  <i type="int" name="IALGO">    38</i>
  <i type="logical" name="ADDGRID"> T  </i>
  <i type="int" name="NELMIN">     5</i>
  <i type="int" name="IBRION">    -1</i>
  <i name="EDIFF">      0.00000001</i>
  <i name="ENCUT">    300.00000000</i>
  <i type="logical" name="LREAL"> F  </i>
  <i type="int" name="ISMEAR">     0</i>
  <i name="SIGMA">      0.05000000</i>
  <i type="logical" name="LWAVE"> F  </i>
  <i type="logical" name="LCHARG"> F  </i>
  <v type="int" name="KPOINT_BSE">    -1     0     0     0</v>
 </incar>
 <kpoints>
  <generation param="Monkhorst-Pack">
   <v type="int" name="divisions">       2        2        2 </v>
   <v name="usershift">      0.00000000       0.00000000       0.00000000 </v>
   <v name="genvec1">      0.50000000       0.00000000       0.00000000 </v>
   <v name="genvec2">      0.00000000       0.50000000       0.00000000 </v>
   <v name="genvec3">      0.00000000       0.00000000       0.50000000 </v>
   <v name="shift">      0.50000000       0.50000000       0.50000000 </v>
  </generation>
  <varray name="kpointlist" >
   <v>       0.25000000       0.25000000       0.25000000 </v>
   <v>      -0.25000000       0.25000000       0.25000000 </v>
   <v>       0.25000000      -0.25000000       0.25000000 </v>
   <v>      -0.25000000      -0.25000000       0.25000000 </v>
  </varray>
  <varray name="weights" >
   <v>       0.25000000 </v>
   <v>       0.25000000 </v>
   <v>       0.25000000 </v>
   <v>       0.25000000 </v>
  </varray>
 </kpoints>
 <parameters>
  <separator name="general" >
   <i type="string" name="SYSTEM">unknown system</i>
   <i type="logical" name="LCOMPAT"> F  </i>
  </separator>
  <separator name="electronic" >
   <i type="string" name="PREC">accura</i>
   <i name="ENMAX">    300.00000000</i>
   <i name="ENAUG">    322.06900000</i>
   <i name="EDIFF">      0.00000001</i>
   <i type="int" name="IALGO">    38</i>
   <i type="int" name="IWAVPR">    10</i>
   <i type="int" name="NBANDS">   164</i>
   <i name="NELECT">    256.00000000</i>
   <i type="int" name="TURBO">     0</i>
   <i type="int" name="IRESTART">     0</i>
   <i type="int" name="NREBOOT">     0</i>
   <i type="int" name="NMIN">     0</i>
   <i name="EREF">      0.00000000</i>
   <separator name="electronic smearing" >
    <i type="int" name="ISMEAR">     0</i>
    <i name="SIGMA">      0.05000000</i>
    <i name="KSPACING">      0.50000000</i>
    <i type="logical" name="KGAMMA"> T  </i>
   </separator>
   <separator name="electronic projectors" >
    <i type="logical" name="LREAL"> F  </i>
    <v name="ROPT">      0.00000000</v>
    <i type="int" name="LMAXPAW">  -100</i>
    <i type="int" name="LMAXMIX">     2</i>
    <i type="logical" name="NLSPLINE"> F  </i>
   </separator>
   <separator name="electronic startup" >
    <i type="int" name="ISTART">     0</i>
    <i type="int" name="ICHARG">     2</i>
    <i type="int" name="INIWAV">     1</i>
   </separator>
   <separator name="electronic spin" >
    <i type="int" name="ISPIN">     1</i>
    <i type="logical" name="LNONCOLLINEAR"> F  </i>
    <v name="MAGMOM">      1.00000000      1.00000000      1.00000000      1.00000000      1.00000000      1.00000000      1.00000000      1.00000000      1.00000000      1.00000000      1.00000000      1.00000000      1.00000000      1.00000000      1.00000000      1.00000000      1.00000000      1.00000000      1.00000000      1.00000000
      1.00000000      1.00000000      1.00000000      1.00000000      1.00000000      1.00000000      1.00000000      1.00000000      1.00000000      1.00000000      1.00000000      1.00000000      1.00000000      1.00000000      1.00000000      1.00000000      1.00000000      1.00000000      1.00000000      1.00000000
      1.00000000      1.00000000      1.00000000      1.00000000      1.00000000      1.00000000      1.00000000      1.00000000      1.00000000      1.00000000      1.00000000      1.00000000      1.00000000      1.00000000      1.00000000      1.00000000      1.00000000      1.00000000      1.00000000      1.00000000
      1.00000000      1.00000000      1.00000000      1.00000000</v>
    <i name="NUPDOWN">     -1.00000000</i>
    <i type="logical" name="LSORBIT"> F  </i>
    <v name="SAXIS">      0.00000000      0.00000000      1.00000000</v>
    <i type="logical" name="LSPIRAL"> F  </i>
    <v name="QSPIRAL">      0.00000000      0.00000000      0.00000000</v>
    <i type="logical" name="LZEROZ"> F  </i>
   </separator>
   <separator name="electronic exchange-correlation" >
    <i type="logical" name="LASPH"> F  </i>
    <i type="logical" name="LMETAGGA"> F  </i>
   </separator>
   <separator name="electronic convergence" >
    <i type="int" name="NELM">    60</i>
    <i type="int" name="NELMDL">    -5</i>
    <i type="int" name="NELMIN">     5</i>
    <i name="ENINI">    300.00000000</i>
    <separator name="electronic convergence detail" >
     <i type="logical" name="LDIAG"> T  </i>
     <i type="logical" name="LSUBROT"> F  </i>
     <i name="WEIMIN">      0.00000000</i>
     <i name="EBREAK">      0.00000000</i>
     <i name="DEPER">      0.30000000</i>
     <i type="int" name="NRMM">     4</i>
     <i name="TIME">      0.40000000</i>
    </separator>
   </separator>
   <separator name="electronic mixer" >
    <i name="AMIX">      0.40000000</i>
    <i name="BMIX">      1.00000000</i>
    <i name="AMIN">      0.10000000</i>
    <i name="AMIX_MAG">      1.60000000</i>
    <i name="BMIX_MAG">      1.00000000</i>
    <separator name="electronic mixer details" >
     <i type="int" name="IMIX">     4</i>
     <i type="logical" name="MIXFIRST"> F  </i>
     <i type="int" name="MAXMIX">   -45</i>
     <i name="WC">    100.00000000</i>
     <i type="int" name="INIMIX">     1</i>
     <i type="int" name="MIXPRE">     1</i>
     <i type="int" name="MREMOVE">     5</i>
    </separator>
   </separator>
   <separator name="electronic dipolcorrection" >
    <i type="logical" name="LDIPOL"> F  </i>
    <i type="logical" name="LMONO"> F  </i>
    <i type="int" name="IDIPOL">     0</i>
    <i name="EPSILON">      1.00000000</i>
    <v name="DIPOL">   -100.00000000   -100.00000000   -100.00000000</v>
    <i name="EFIELD">      0.00000000</i>
   </separator>
  </separator>
  <separator name="grids" >
   <i type="int" name="NGX">    64</i>
   <i type="int" name="NGY">    64</i>
   <i type="int" name="NGZ">    64</i>
   <i type="int" name="NGXF">   128</i>
   <i type="int" name="NGYF">   128</i>
   <i type="int" name="NGZF">   128</i>
   <i type="logical" name="ADDGRID"> T  </i>
  </separator>
  <separator name="ionic" >
   <i type="int" name="NSW">     0</i>
   <i type="int" name="IBRION">    -1</i>
   <i type="int" name="ISIF">     2</i>
   <i name="PSTRESS">      0.00000000</i>
   <i name="EDIFFG">      0.00000010</i>
   <i type="int" name="NFREE">     0</i>
   <i name="POTIM">      0.50000000</i>
   <i name="SMASS">     -3.00000000</i>
   <i name="SCALEE">      1.00000000</i>
  </separator>
  <separator name="ionic md" >
   <i name="TEBEG">      0.00010000</i>
   <i name="TEEND">      0.00010000</i>
   <i type="int" name="NBLOCK">     1</i>
   <i type="int" name="KBLOCK">     1</i>
   <i type="int" name="NPACO">   256</i>
   <i name="APACO">     16.00000000</i>
  </separator>
  <separator name="symmetry" >
   <i type="int" name="ISYM">     2</i>
   <i name="SYMPREC">      0.00001000</i>
  </separator>
  <separator name="dos" >
   <i type="logical" name="LORBIT"> F  </i>
   <v name="RWIGS">     -1.00000000</v>
   <i type="int" name="NEDOS">   301</i>
   <i name="EMIN">     10.00000000</i>
   <i name="EMAX">    -10.00000000</i>
   <i name="EFERMI">      0.00000000</i>
  </separator>
  <separator name="writing" >
   <i type="int" name="NWRITE">     2</i>
   <i type="logical" name="LWAVE"> F  </i>
   <i type="logical" name="LCHARG"> F  </i>
   <i type="logical" name="LPARD"> F  </i>
   <i type="logical" name="LVTOT"> F  </i>
   <i type="logical" name="LVHAR"> F  </i>
   <i type="logical" name="LELF"> F  </i>
   <i type="logical" name="LOPTICS"> F  </i>
   <v name="STM">      0.00000000      0.00000000      0.00000000      0.00000000      0.00000000      0.00000000      0.00000000</v>
  </separator>
  <separator name="performance" >
   <i type="int" name="NPAR">     4</i>
   <i type="int" name="NSIM">     4</i>
   <i type="int" name="NBLK">    -1</i>
   <i type="logical" name="LPLANE"> T  </i>
   <i type="logical" name="LSCALAPACK"> T  </i>
   <i type="logical" name="LSCAAWARE"> F  </i>
   <i type="logical" name="LSCALU"> F  </i>
   <i type="logical" name="LASYNC"> F  </i>
   <i type="logical" name="LORBITALREAL"> F  </i>
  </separator>
  <separator name="miscellaneous" >
   <i type="int" name="IDIOT">     3</i>
   <i type="logical" name="LMUSIC"> F  </i>
   <v name="POMASS">     28.08500000</v>
   <v name="DARWINR">      0.00000000</v>
   <v name="DARWINV">      1.00000000</v>
   <i type="logical" name="LCORR"> T  </i>
  </separator>
  <i type="logical" name="GGA_COMPAT"> T  </i>
  <i type="logical" name="LBERRY"> F  </i>
  <i type="int" name="ICORELEVEL">     0</i>
  <i type="logical" name="LDAU"> F  </i>
  <i type="int" name="I_CONSTRAINED_M">     0</i>
  <separator name="electronic exchange-correlation" >
   <i type="string" name="GGA">--</i>
   <i type="int" name="VOSKOWN">     0</i>
   <i type="logical" name="LHFCALC"> F  </i>
   <i type="string" name="PRECFOCK"></i>
   <i type="logical" name="LSYMGRAD"> F  </i>
   <i type="logical" name="LHFONE"> F  </i>
   <i type="logical" name="LRHFCALC"> F  </i>
   <i type="logical" name="LTHOMAS"> F  </i>
   <i type="logical" name="LMODELHF"> F  </i>
   <i name="ENCUT4O">     -1.00000000</i>
   <i type="int" name="EXXOEP">     0</i>
   <i type="int" name="FOURORBIT">     0</i>
   <i name="AEXX">      0.00000000</i>
   <i name="HFALPHA">      0.00000000</i>
   <i name="MCALPHA">      0.00000000</i>
   <i name="ALDAX">      1.00000000</i>
   <i name="AGGAX">      1.00000000</i>
   <i name="ALDAC">      1.00000000</i>
   <i name="AGGAC">      1.00000000</i>
   <i type="int" name="NKREDX">     1</i>
   <i type="int" name="NKREDY">     1</i>
   <i type="int" name="NKREDZ">     1</i>
   <i type="logical" name="SHIFTRED"> F  </i>
   <i type="logical" name="ODDONLY"> F  </i>
   <i type="logical" name="EVENONLY"> F  </i>
   <i type="int" name="LMAXFOCK">     0</i>
   <i type="int" name="NMAXFOCKAE">     0</i>
   <i type="logical" name="LFOCKAEDFT"> F  </i>
   <i name="HFSCREEN">      0.00000000</i>
   <i name="HFSCREENC">      0.00000000</i>
   <i type="int" name="NBANDSGWLOW">     0</i>
  </separator>
  <separator name="vdW DFT" >
   <i type="logical" name="LUSE_VDW"> F  </i>
   <i name="Zab_VDW">     -0.84910000</i>
   <i name="PARAM1">      0.12340000</i>
   <i name="PARAM2">      1.00000000</i>
   <i name="PARAM3">      0.00000000</i>
  </separator>
  <separator name="model GW" >
   <i type="int" name="MODEL_GW">     0</i>
   <i name="MODEL_EPS0">     12.24990743</i>
   <i name="MODEL_ALPHA">      1.00000000</i>
  </separator>
  <separator name="linear response parameters" >
   <i type="logical" name="LEPSILON"> F  </i>
   <i type="logical" name="LRPA"> F  </i>
   <i type="logical" name="LNABLA"> F  </i>
   <i type="logical" name="LVEL"> F  </i>
   <i type="int" name="KINTER">     0</i>
   <i name="CSHIFT">      0.10000000</i>
   <i name="OMEGAMAX">     -1.00000000</i>
   <i name="DEG_THRESHOLD">      0.00200000</i>
  </separator>
  <separator name="orbital magnetization" >
   <i type="logical" name="NUCIND"> F  </i>
   <v name="MAGPOS">      0.00000000      0.00000000      0.00000000</v>
   <i type="logical" name="LNICSALL"> T  </i>
   <i type="logical" name="ORBITALMAG"> F  </i>
   <i type="logical" name="LMAGBLOCH"> F  </i>
   <i type="logical" name="LCHIMAG"> F  </i>
   <i type="logical" name="LGAUGE"> T  </i>
   <i type="int" name="MAGATOM">     0</i>
   <v name="MAGDIPOL">      0.00000000      0.00000000      0.00000000</v>
   <v name="AVECCONST">      0.00000000      0.00000000      0.00000000</v>
  </separator>
  <separator name="response functions" >
   <i type="logical" name="LADDER"> F  </i>
   <i type="logical" name="LFXC"> F  </i>
   <i type="logical" name="LHARTREE"> T  </i>
   <i type="int" name="IBSE">     0</i>
   <v type="int" name="KPOINT">    -1     0     0     0</v>
   <i type="logical" name="LTCTE"> F  </i>
   <i type="logical" name="LTETE"> F  </i>
   <i type="logical" name="LTRIPLET"> F  </i>
   <i type="logical" name="LFXCEPS"> F  </i>
   <i type="logical" name="LFXHEG"> F  </i>
   <i type="int" name="NATURALO">     0</i>
   <i type="logical" name="L2ORDER"> F  </i>
   <i type="logical" name="LUSEW"> F  </i>
   <i name="ENCUTGW">     -2.00000000</i>
   <i name="ENCUTGWSOFT">     -2.00000000</i>
   <i name="ENCUTLF">     -1.00000000</i>
   <i type="int" name="LMAXMP2">    -1</i>
   <i name="SCISSOR">      0.00000000</i>
   <i type="int" name="NOMEGA">     0</i>
   <i type="int" name="NOMEGAR">     0</i>
   <i type="int" name="NBANDSGW">    -1</i>
   <i type="int" name="NBANDSO">    -1</i>
   <i type="int" name="NBANDSV">    -1</i>
   <i type="int" name="NELM">     1</i>
   <i type="int" name="NELMHF">     1</i>
   <i type="int" name="DIM">     3</i>
   <i type="int" name="ANTIRES">     0</i>
   <i name="OMEGAMAX">    -30.00000000</i>
   <i name="OMEGAMIN">    -30.00000000</i>
   <i name="OMEGATL">   -200.00000000</i>
   <i type="int" name="OMEGAGRID">     0</i>
   <i name="CSHIFT">     -0.10000000</i>
   <i type="logical" name="SELFENERGY"> F  </i>
   <i type="logical" name="LSPECTRAL"> F  </i>
   <i type="logical" name="LSPECTRALGW"> F  </i>
   <i type="logical" name="LSINGLES"> F  </i>
   <i type="logical" name="LFERMIGW"> F  </i>
   <i type="logical" name="ODDONLYGW"> F  </i>
   <i type="logical" name="EVENONLYGW"> F  </i>
   <i type="int" name="NKREDLFX">     1</i>
   <i type="int" name="NKREDLFY">     1</i>
   <i type="int" name="NKREDLFZ">     1</i>
   <i type="int" name="MAXMEM">  1800</i>
   <i type="int" name="TELESCOPE">     0</i>
   <i type="int" name="TAUPAR">     1</i>
   <i type="int" name="OMEGAPAR">    -1</i>
   <i name="LAMBDA">      1.00000000</i>
  </separator>
  <separator name="External order field" >
   <i name="OFIELD_KAPPA">      0.00000000</i>
   <v name="OFIELD_K">      0.00000000      0.00000000      0.00000000</v>
   <i name="OFIELD_Q6_NEAR">      0.00000000</i>
   <i name="OFIELD_Q6_FAR">      0.00000000</i>
   <i name="OFIELD_A">      0.00000000</i>
  </separator>
 </parameters>
 <atominfo>
  <atoms>      64 </atoms>
  <types>       1 </types>
  <array name="atoms" >
   <dimension dim="1">ion</dimension>
   <field type="string">element</field>
   <field type="int">atomtype</field>
   <set>
    <rc><c>Si</c><c>   1</c></rc>
    <rc><c>Si</c><c>   1</c></rc>
    <rc><c>Si</c><c>   1</c></rc>
    <rc><c>Si</c><c>   1</c></rc>
    <rc><c>Si</c><c>   1</c></rc>
    <rc><c>Si</c><c>   1</c></rc>
    <rc><c>Si</c><c>   1</c></rc>
    <rc><c>Si</c><c>   1</c></rc>
    <rc><c>Si</c><c>   1</c></rc>
    <rc><c>Si</c><c>   1</c></rc>
    <rc><c>Si</c><c>   1</c></rc>
    <rc><c>Si</c><c>   1</c></rc>
    <rc><c>Si</c><c>   1</c></rc>
    <rc><c>Si</c><c>   1</c></rc>
    <rc><c>Si</c><c>   1</c></rc>
    <rc><c>Si</c><c>   1</c></rc>
    <rc><c>Si</c><c>   1</c></rc>
    <rc><c>Si</c><c>   1</c></rc>
    <rc><c>Si</c><c>   1</c></rc>
    <rc><c>Si</c><c>   1</c></rc>
    <rc><c>Si</c><c>   1</c></rc>
    <rc><c>Si</c><c>   1</c></rc>
    <rc><c>Si</c><c>   1</c></rc>
    <rc><c>Si</c><c>   1</c></rc>
    <rc><c>Si</c><c>   1</c></rc>
    <rc><c>Si</c><c>   1</c></rc>
    <rc><c>Si</c><c>   1</c></rc>
    <rc><c>Si</c><c>   1</c></rc>
    <rc><c>Si</c><c>   1</c></rc>
    <rc><c>Si</c><c>   1</c></rc>
    <rc><c>Si</c><c>   1</c></rc>
    <rc><c>Si</c><c>   1</c></rc>
    <rc><c>Si</c><c>   1</c></rc>
    <rc><c>Si</c><c>   1</c></rc>
    <rc><c>Si</c><c>   1</c></rc>
    <rc><c>Si</c><c>   1</c></rc>
    <rc><c>Si</c><c>   1</c></rc>
    <rc><c>Si</c><c>   1</c></rc>
    <rc><c>Si</c><c>   1</c></rc>
    <rc><c>Si</c><c>   1</c></rc>
    <rc><c>Si</c><c>   1</c></rc>
    <rc><c>Si</c><c>   1</c></rc>
    <rc><c>Si</c><c>   1</c></rc>
    <rc><c>Si</c><c>   1</c></rc>
    <rc><c>Si</c><c>   1</c></rc>
    <rc><c>Si</c><c>   1</c></rc>
    <rc><c>Si</c><c>   1</c></rc>
    <rc><c>Si</c><c>   1</c></rc>
    <rc><c>Si</c><c>   1</c></rc>
    <rc><c>Si</c><c>   1</c></rc>
    <rc><c>Si</c><c>   1</c></rc>
    <rc><c>Si</c><c>   1</c></rc>
    <rc><c>Si</c><c>   1</c></rc>
    <rc><c>Si</c><c>   1</c></rc>
    <rc><c>Si</c><c>   1</c></rc>
    <rc><c>Si</c><c>   1</c></rc>
    <rc><c>Si</c><c>   1</c></rc>
    <rc><c>Si</c><c>   1</c></rc>
    <rc><c>Si</c><c>   1</c></rc>
    <rc><c>Si</c><c>   1</c></rc>
    <rc><c>Si</c><c>   1</c></rc>
    <rc><c>Si</c><c>   1</c></rc>
    <rc><c>Si</c><c>   1</c></rc>
    <rc><c>Si</c><c>   1</c></rc>
   </set>
  </array>
  <array name="atomtypes" >
   <dimension dim="1">type</dimension>
   <field type="int">atomspertype</field>
   <field type="string">element</field>
   <field>mass</field>
   <field>valence</field>
   <field type="string">pseudopotential</field>
   <set>
    <rc><c>  64</c><c>Si</c><c>     28.08500000</c><c>      4.00000000</c><c>  PAW_PBE Si 05Jan2001                  </c></rc>
   </set>
  </array>
 </atominfo>
 <structure name="initialpos" >
  <crystal>
   <varray name="basis" >
    <v>      10.93252578       0.00000000       0.00000000 </v>
    <v>       0.00000000      10.93252578       0.00000000 </v>
    <v>       0.00000000       0.00000000      10.93252578 </v>
   </varray>
   <i name="volume">   1306.65679237 </i>
   <varray name="rec_basis" >
    <v>       0.09147017       0.00000000       0.00000000 </v>
    <v>       0.00000000       0.09147017       0.00000000 </v>
    <v>       0.00000000       0.00000000       0.09147017 </v>
   </varray>
  </crystal>
  <varray name="positions" >
   <v>       0.44024411       0.43750000       0.43750000 </v>
   <v>       0.93750000       0.43750000       0.43750000 </v>
   <v>       0.43750000       0.93750000       0.43750000 </v>
   <v>       0.93750000       0.93750000       0.43750000 </v>
   <v>       0.43750000       0.43750000       0.93750000 </v>
   <v>       0.93750000       0.43750000       0.93750000 </v>
   <v>       0.43750000       0.93750000       0.93750000 </v>
   <v>       0.93750000       0.93750000       0.93750000 </v>
   <v>       0.43750000       0.18750000       0.18750000 </v>
   <v>       0.93750000       0.18750000       0.18750000 </v>
   <v>       0.43750000       0.68750000       0.18750000 </v>
   <v>       0.93750000       0.68750000       0.18750000 </v>
   <v>       0.43750000       0.18750000       0.68750000 </v>
   <v>       0.93750000       0.18750000       0.68750000 </v>
   <v>       0.43750000       0.68750000       0.68750000 </v>
   <v>       0.93750000       0.68750000       0.68750000 </v>
   <v>       0.18750000       0.43750000       0.18750000 </v>
   <v>       0.68750000       0.43750000       0.18750000 </v>
   <v>       0.18750000       0.93750000       0.18750000 </v>
   <v>       0.68750000       0.93750000       0.18750000 </v>
   <v>       0.18750000       0.43750000       0.68750000 </v>
   <v>       0.68750000       0.43750000       0.68750000 </v>
   <v>       0.18750000       0.93750000       0.68750000 </v>
   <v>       0.68750000       0.93750000       0.68750000 </v>
   <v>       0.18750000       0.18750000       0.43750000 </v>
   <v>       0.68750000       0.18750000       0.43750000 </v>
   <v>       0.18750000       0.68750000       0.43750000 </v>
   <v>       0.68750000       0.68750000       0.43750000 </v>
   <v>       0.18750000       0.18750000       0.93750000 </v>
   <v>       0.68750000       0.18750000       0.93750000 </v>
   <v>       0.18750000       0.68750000       0.93750000 </v>
   <v>       0.68750000       0.68750000       0.93750000 </v>
   <v>       0.06250000       0.06250000       0.06250000 </v>
   <v>       0.56250000       0.06250000       0.06250000 </v>
   <v>       0.06250000       0.56250000       0.06250000 </v>
   <v>       0.56250000       0.56250000       0.06524411 </v>
   <v>       0.06250000       0.06250000       0.56250000 </v>
   <v>       0.56250000       0.06250000       0.56250000 </v>
   <v>       0.06250000       0.56250000       0.56250000 </v>
   <v>       0.56250000       0.56250000       0.56250000 </v>
   <v>       0.06250000       0.31250000       0.31250000 </v>
   <v>       0.56250000       0.31250000       0.31250000 </v>
   <v>       0.06250000       0.81250000       0.31250000 </v>
   <v>       0.56250000       0.81250000       0.31250000 </v>
   <v>       0.06250000       0.31250000       0.81250000 </v>
   <v>       0.56250000       0.31250000       0.81250000 </v>
   <v>       0.06250000       0.81250000       0.81250000 </v>
   <v>       0.56250000       0.81250000       0.81250000 </v>
   <v>       0.31250000       0.06250000       0.31250000 </v>
   <v>       0.81250000       0.06250000       0.31250000 </v>
   <v>       0.31250000       0.56250000       0.31250000 </v>
   <v>       0.81250000       0.56250000       0.31250000 </v>
   <v>       0.31250000       0.06250000       0.81250000 </v>
   <v>       0.81250000       0.06250000       0.81250000 </v>
   <v>       0.31250000       0.56250000       0.81250000 </v>
   <v>       0.81250000       0.56250000       0.81250000 </v>
   <v>       0.31250000       0.31250000       0.06250000 </v>
   <v>       0.81250000       0.31250000       0.06250000 </v>
   <v>       0.31250000       0.81250000       0.06250000 </v>
   <v>       0.81250000       0.81250000       0.06250000 </v>
   <v>       0.31250000       0.31250000       0.56250000 </v>
   <v>       0.81250000       0.31250000       0.56250000 </v>
   <v>       0.31250000       0.81250000       0.56250000 </v>
   <v>       0.81250000       0.81250000       0.56250000 </v>
  </varray>
 </structure>
 <calculation>
  <scstep>
   <time name="dav">    4.52    4.67</time>
   <time name="total">    4.71    4.89</time>
   <energy>
    <i name="alphaZ">    105.52440745 </i>
    <i name="ewald">  -7265.46974073 </i>
    <i name="hartreedc">   -361.71385888 </i>
    <i name="XCdc">   -597.75713462 </i>
    <i name="pawpsdc">   5639.92317535 </i>
    <i name="pawaedc">  -4513.95313856 </i>
    <i name="eentropy">     -0.00124038 </i>
    <i name="bandstr">    856.87052367 </i>
    <i name="atom">   6596.14994790 </i>
    <i name="e_fr_energy">    459.57294120 </i>
    <i name="e_wo_entrp">    459.57418158 </i>
    <i name="e_0_energy">    459.57356139 </i>
   </energy>
  </scstep>
  <scstep>
   <time name="dav">    5.05    5.46</time>
   <time name="total">    5.05    5.47</time>
   <energy>
    <i name="e_fr_energy">   -300.08197208 </i>
    <i name="e_wo_entrp">   -300.08197208 </i>
    <i name="e_0_energy">   -300.08197208 </i>
   </energy>
  </scstep>
  <scstep>
   <time name="dav">    5.08    5.50</time>
   <time name="total">    5.08    5.51</time>
   <energy>
    <i name="e_fr_energy">   -350.93656702 </i>
    <i name="e_wo_entrp">   -350.93656702 </i>
    <i name="e_0_energy">   -350.93656702 </i>
   </energy>
  </scstep>
  <scstep>
   <time name="dav">    5.08    5.49</time>
   <time name="total">    5.08    5.52</time>
   <energy>
    <i name="e_fr_energy">   -352.26662239 </i>
    <i name="e_wo_entrp">   -352.26662239 </i>
    <i name="e_0_energy">   -352.26662239 </i>
   </energy>
  </scstep>
  <scstep>
   <time name="dav">    5.01    5.42</time>
   <time name="total">    5.26    5.70</time>
   <energy>
    <i name="e_fr_energy">   -352.31297099 </i>
    <i name="e_wo_entrp">   -352.31297099 </i>
    <i name="e_0_energy">   -352.31297099 </i>
   </energy>
  </scstep>
  <scstep>
   <time name="dav">    4.92    5.33</time>
   <time name="total">    5.35    5.80</time>
   <energy>
    <i name="e_fr_energy">   -348.58449433 </i>
    <i name="e_wo_entrp">   -348.58449433 </i>
    <i name="e_0_energy">   -348.58449433 </i>
   </energy>
  </scstep>
  <scstep>
   <time name="dav">    4.87    5.28</time>
   <time name="total">    5.31    5.75</time>
   <energy>
    <i name="e_fr_energy">   -346.87188415 </i>
    <i name="e_wo_entrp">   -346.87188415 </i>
    <i name="e_0_energy">   -346.87188415 </i>
   </energy>
  </scstep>
  <scstep>
   <time name="dav">    5.02    5.44</time>
   <time name="total">    5.45    5.91</time>
   <energy>
    <i name="e_fr_energy">   -346.89813903 </i>
    <i name="e_wo_entrp">   -346.89813903 </i>
    <i name="e_0_energy">   -346.89813903 </i>
   </energy>
  </scstep>
  <scstep>
   <time name="dav">    5.13    5.56</time>
   <time name="total">    5.57    6.04</time>
   <energy>
    <i name="e_fr_energy">   -346.90490547 </i>
    <i name="e_wo_entrp">   -346.90490547 </i>
    <i name="e_0_energy">   -346.90490547 </i>
   </energy>
  </scstep>
  <scstep>
   <time name="dav">    4.76    5.15</time>
   <time name="total">    5.19    5.63</time>
   <energy>
    <i name="e_fr_energy">   -346.90695082 </i>
    <i name="e_wo_entrp">   -346.90695082 </i>
    <i name="e_0_energy">   -346.90695082 </i>
   </energy>
  </scstep>
  <scstep>
   <time name="dav">    5.04    5.46</time>
   <time name="total">    5.48    5.94</time>
   <energy>
    <i name="e_fr_energy">   -346.90692528 </i>
    <i name="e_wo_entrp">   -346.90692528 </i>
    <i name="e_0_energy">   -346.90692528 </i>
   </energy>
  </scstep>
  <scstep>
   <time name="dav">    4.97    5.38</time>
   <time name="total">    5.42    5.87</time>
   <energy>
    <i name="e_fr_energy">   -346.90694014 </i>
    <i name="e_wo_entrp">   -346.90694014 </i>
    <i name="e_0_energy">   -346.90694014 </i>
   </energy>
  </scstep>
  <scstep>
   <time name="dav">    4.95    5.36</time>
   <time name="total">    5.39    5.84</time>
   <energy>
    <i name="e_fr_energy">   -346.90694069 </i>
    <i name="e_wo_entrp">   -346.90694069 </i>
    <i name="e_0_energy">   -346.90694069 </i>
   </energy>
  </scstep>
  <scstep>
   <time name="dav">    5.06    5.48</time>
   <time name="total">    5.50    5.96</time>
   <energy>
    <i name="e_fr_energy">   -346.90694132 </i>
    <i name="e_wo_entrp">   -346.90694132 </i>
    <i name="e_0_energy">   -346.90694132 </i>
   </energy>
  </scstep>
  <scstep>
   <time name="dav">    4.32    4.53</time>
   <time name="total">    4.78    5.01</time>
   <energy>
    <i name="e_fr_energy">   -346.90694109 </i>
    <i name="e_wo_entrp">   -346.90694109 </i>
    <i name="e_0_energy">   -346.90694109 </i>
   </energy>
  </scstep>
  <scstep>
   <time name="dav">    3.43    3.67</time>
   <time name="total">    3.87    4.14</time>
   <energy>
    <i name="e_fr_energy">   -346.90694116 </i>
    <i name="e_wo_entrp">   -346.90694116 </i>
    <i name="e_0_energy">   -346.90694116 </i>
   </energy>
  </scstep>
  <scstep>
   <time name="dav">    3.40    3.68</time>
   <time name="total">    3.83    4.15</time>
   <energy>
    <i name="e_fr_energy">   -346.90694115 </i>
    <i name="e_wo_entrp">   -346.90694115 </i>
    <i name="e_0_energy">   -346.90694115 </i>
   </energy>
  </scstep>
  <scstep>
   <time name="dav">    3.35    3.59</time>
   <time name="total">    3.79    4.06</time>
   <energy>
    <i name="e_fr_energy">   -346.90694116 </i>
    <i name="e_wo_entrp">   -346.90694116 </i>
    <i name="e_0_energy">   -346.90694116 </i>
   </energy>
  </scstep>
  <scstep>
   <time name="dav">    3.34    3.61</time>
   <time name="total">    3.52    3.82</time>
   <energy>
    <i name="alphaZ">    105.52440745 </i>
    <i name="ewald">  -7265.46974073 </i>
    <i name="hartreedc">   -485.14473020 </i>
    <i name="XCdc">   -577.61228851 </i>
    <i name="pawpsdc">  27883.43711352 </i>
    <i name="pawaedc"> -26764.15504197 </i>
    <i name="eentropy">      0.00000000 </i>
    <i name="bandstr">    160.36339137 </i>
    <i name="atom">   6596.14994790 </i>
    <i name="e_fr_energy">   -346.90694117 </i>
    <i name="e_wo_entrp">   -346.90694117 </i>
    <i name="e_0_energy">   -346.90694117 </i>
   </energy>
  </scstep>
  <structure>
   <crystal>
    <varray name="basis" >
     <v>      10.93252578       0.00000000       0.00000000 </v>
     <v>       0.00000000      10.93252578       0.00000000 </v>
     <v>       0.00000000       0.00000000      10.93252578 </v>
    </varray>
    <i name="volume">   1306.65679237 </i>
    <varray name="rec_basis" >
     <v>       0.09147017       0.00000000       0.00000000 </v>
     <v>       0.00000000       0.09147017       0.00000000 </v>
     <v>       0.00000000       0.00000000       0.09147017 </v>
    </varray>
   </crystal>
   <varray name="positions" >
    <v>       0.44024411       0.43750000       0.43750000 </v>
    <v>       0.93750000       0.43750000       0.43750000 </v>
    <v>       0.43750000       0.93750000       0.43750000 </v>
    <v>       0.93750000       0.93750000       0.43750000 </v>
    <v>       0.43750000       0.43750000       0.93750000 </v>
    <v>       0.93750000       0.43750000       0.93750000 </v>
    <v>       0.43750000       0.93750000       0.93750000 </v>
    <v>       0.93750000       0.93750000       0.93750000 </v>
    <v>       0.43750000       0.18750000       0.18750000 </v>
    <v>       0.93750000       0.18750000       0.18750000 </v>
    <v>       0.43750000       0.68750000       0.18750000 </v>
    <v>       0.93750000       0.68750000       0.18750000 </v>
    <v>       0.43750000       0.18750000       0.68750000 </v>
    <v>       0.93750000       0.18750000       0.68750000 </v>
    <v>       0.43750000       0.68750000       0.68750000 </v>
    <v>       0.93750000       0.68750000       0.68750000 </v>
    <v>       0.18750000       0.43750000       0.18750000 </v>
    <v>       0.68750000       0.43750000       0.18750000 </v>
    <v>       0.18750000       0.93750000       0.18750000 </v>
    <v>       0.68750000       0.93750000       0.18750000 </v>
    <v>       0.18750000       0.43750000       0.68750000 </v>
    <v>       0.68750000       0.43750000       0.68750000 </v>
    <v>       0.18750000       0.93750000       0.68750000 </v>
    <v>       0.68750000       0.93750000       0.68750000 </v>
    <v>       0.18750000       0.18750000       0.43750000 </v>
    <v>       0.68750000       0.18750000       0.43750000 </v>
    <v>       0.18750000       0.68750000       0.43750000 </v>
    <v>       0.68750000       0.68750000       0.43750000 </v>
    <v>       0.18750000       0.18750000       0.93750000 </v>
    <v>       0.68750000       0.18750000       0.93750000 </v>
    <v>       0.18750000       0.68750000       0.93750000 </v>
    <v>       0.68750000       0.68750000       0.93750000 </v>
    <v>       0.06250000       0.06250000       0.06250000 </v>
    <v>       0.56250000       0.06250000       0.06250000 </v>
    <v>       0.06250000       0.56250000       0.06250000 </v>
    <v>       0.56250000       0.56250000       0.06524411 </v>
    <v>       0.06250000       0.06250000       0.56250000 </v>
    <v>       0.56250000       0.06250000       0.56250000 </v>
    <v>       0.06250000       0.56250000       0.56250000 </v>
    <v>       0.56250000       0.56250000       0.56250000 </v>
    <v>       0.06250000       0.31250000       0.31250000 </v>
    <v>       0.56250000       0.31250000       0.31250000 </v>
    <v>       0.06250000       0.81250000       0.31250000 </v>
    <v>       0.56250000       0.81250000       0.31250000 </v>
    <v>       0.06250000       0.31250000       0.81250000 </v>
    <v>       0.56250000       0.31250000       0.81250000 </v>
    <v>       0.06250000       0.81250000       0.81250000 </v>
    <v>       0.56250000       0.81250000       0.81250000 </v>
    <v>       0.31250000       0.06250000       0.31250000 </v>
    <v>       0.81250000       0.06250000       0.31250000 </v>
    <v>       0.31250000       0.56250000       0.31250000 </v>
    <v>       0.81250000       0.56250000       0.31250000 </v>
    <v>       0.31250000       0.06250000       0.81250000 </v>
    <v>       0.81250000       0.06250000       0.81250000 </v>
    <v>       0.31250000       0.56250000       0.81250000 </v>
    <v>       0.81250000       0.56250000       0.81250000 </v>
    <v>       0.31250000       0.31250000       0.06250000 </v>
    <v>       0.81250000       0.31250000       0.06250000 </v>
    <v>       0.31250000       0.81250000       0.06250000 </v>
    <v>       0.81250000       0.81250000       0.06250000 </v>
    <v>       0.31250000       0.31250000       0.56250000 </v>
    <v>       0.81250000       0.31250000       0.56250000 </v>
    <v>       0.31250000       0.81250000       0.56250000 </v>
    <v>       0.81250000       0.81250000       0.56250000 </v>
   </varray>
  </structure>
  <varray name="forces" >
   <v>      -0.38619809       0.00086598      -0.00027798 </v>
   <v>       0.00118829       0.00071041       0.00066276 </v>
   <v>       0.00202407       0.00063950       0.00066204 </v>
   <v>       0.00056889       0.00074679      -0.00053478 </v>
   <v>       0.06227400       0.06095516       0.09307793 </v>
   <v>       0.00071082       0.00124535      -0.00143079 </v>
   <v>      -0.01030108       0.00089392      -0.00143346 </v>
   <v>       0.00125195       0.00067685       0.00613626 </v>
   <v>      -0.01409407       0.00369885       0.00129376 </v>
   <v>      -0.00071177       0.00091165       0.00644139 </v>
   <v>      -0.07889245       0.06879986       0.09314692 </v>
   <v>      -0.00092801       0.00144545      -0.00170902 </v>
   <v>      -0.01342447      -0.00206386       0.00328277 </v>
   <v>      -0.00075631       0.00052092      -0.00030143 </v>
   <v>      -0.01379194      -0.00186517      -0.00304758 </v>
   <v>      -0.00062586       0.00042932       0.00039086 </v>
   <v>       0.00657204      -0.00389019       0.00408151 </v>
   <v>       0.07191552      -0.06888252       0.09011610 </v>
   <v>       0.00170424      -0.00091542       0.00434971 </v>
   <v>       0.00223261      -0.00115466       0.00037111 </v>
   <v>       0.00624822       0.00201964      -0.00494288 </v>
   <v>       0.00671229       0.00185489       0.00541362 </v>
   <v>       0.00177248      -0.00052612       0.00132648 </v>
   <v>       0.00167422      -0.00037047      -0.00122965 </v>
   <v>       0.00490382       0.00481529      -0.00320882 </v>
   <v>       0.00509605      -0.00632447      -0.00210154 </v>
   <v>       0.00500973      -0.00626492       0.00333313 </v>
   <v>       0.00490101       0.00478658       0.00249051 </v>
   <v>       0.00033913      -0.00253600       0.00590713 </v>
   <v>      -0.00022583       0.00095730      -0.00166270 </v>
   <v>       0.00012771       0.00061577      -0.00120494 </v>
   <v>      -0.05992952      -0.06280409       0.09330455 </v>
   <v>      -0.00053358       0.00075354      -0.01079857 </v>
   <v>       0.00621155       0.00068463       0.00200014 </v>
   <v>       0.00061724       0.00065651       0.00192192 </v>
   <v>      -0.00149272       0.00120968      -0.38621852 </v>
   <v>       0.00061793       0.00060115       0.00123150 </v>
   <v>      -0.00147502       0.00092553       0.00103505 </v>
   <v>      -0.00027572       0.00090523       0.00073624 </v>
   <v>       0.09580057       0.06612137       0.06666014 </v>
   <v>      -0.00004477       0.00093733       0.00011144 </v>
   <v>       0.09855919      -0.07179257      -0.06030957 </v>
   <v>       0.00038900      -0.00244801       0.00036678 </v>
   <v>      -0.00424759       0.00475942       0.00459380 </v>
   <v>       0.00084822      -0.00251748       0.00041748 </v>
   <v>       0.00119684       0.00435041       0.00472611 </v>
   <v>      -0.00076505       0.00110682       0.00026316 </v>
   <v>       0.00354616      -0.00624492       0.00496680 </v>
   <v>       0.00041445      -0.00065922       0.00226736 </v>
   <v>      -0.00118395      -0.00086705       0.00172624 </v>
   <v>       0.08739024      -0.05817879       0.06674406 </v>
   <v>       0.00541539      -0.00367514       0.00670576 </v>
   <v>       0.00427188      -0.00044693       0.00169336 </v>
   <v>       0.00132780      -0.00097607       0.00176265 </v>
   <v>       0.00412616       0.00142187       0.00653678 </v>
   <v>      -0.00490206      -0.00337923       0.00628376 </v>
   <v>      -0.00409850      -0.00142063      -0.01366479 </v>
   <v>      -0.00211667       0.00347630      -0.01351795 </v>
   <v>       0.00891286      -0.00210592      -0.01355121 </v>
   <v>       0.00213019       0.00341293      -0.01352174 </v>
   <v>       0.09282694       0.06073242      -0.06095962 </v>
   <v>      -0.00050320       0.00113066      -0.00093119 </v>
   <v>      -0.00120740       0.00066302      -0.00127283 </v>
   <v>       0.00089592       0.00087156      -0.00070753 </v>
  </varray>
  <varray name="stress" >
   <v>       0.00159730      -0.33475295       0.00003994 </v>
   <v>      -0.33475292       0.02081410       0.33493692 </v>
   <v>       0.00003993       0.33493696       0.00161304 </v>
  </varray>
  <energy>
   <i name="e_fr_energy">   -346.90694117 </i>
   <i name="e_wo_entrp">   -346.90694117 </i>
   <i name="e_0_energy">      0.00000000 </i>
  </energy>
  <time name="totalsc">  104.56  111.96</time>
  <eigenvalues>
   <array>
    <dimension dim="1">band</dimension>
    <dimension dim="2">kpoint</dimension>
    <dimension dim="3">spin</dimension>
    <field>eigene</field>
    <field>occ</field>
    <set>
     <set comment="spin 1">
      <set comment="kpoint 1">
       <r>   -5.9932    1.0000 </r>
       <r>   -5.4687    1.0000 </r>
       <r>   -5.4647    1.0000 </r>
       <r>   -5.4609    1.0000 </r>
       <r>   -4.9693    1.0000 </r>
       <r>   -4.9655    1.0000 </r>
       <r>   -4.9618    1.0000 </r>
       <r>   -4.5323    1.0000 </r>
       <r>   -4.4364    1.0000 </r>
       <r>   -4.4325    1.0000 </r>
       <r>   -4.4284    1.0000 </r>
       <r>   -4.0237    1.0000 </r>
       <r>   -4.0190    1.0000 </r>
       <r>   -4.0183    1.0000 </r>
       <r>   -4.0163    1.0000 </r>
       <r>   -4.0138    1.0000 </r>
       <r>   -4.0075    1.0000 </r>
       <r>   -3.8283    1.0000 </r>
       <r>   -3.8244    1.0000 </r>
       <r>   -3.8204    1.0000 </r>
       <r>   -3.3326    1.0000 </r>
       <r>   -3.3290    1.0000 </r>
       <r>   -3.3235    1.0000 </r>
       <r>   -2.9628    1.0000 </r>
       <r>   -2.9591    1.0000 </r>
       <r>   -2.9557    1.0000 </r>
       <r>   -2.7984    1.0000 </r>
       <r>   -2.7932    1.0000 </r>
       <r>   -2.7924    1.0000 </r>
       <r>   -2.7910    1.0000 </r>
       <r>   -2.7885    1.0000 </r>
       <r>   -2.7815    1.0000 </r>
       <r>   -1.2571    1.0000 </r>
       <r>   -1.2517    1.0000 </r>
       <r>   -1.2506    1.0000 </r>
       <r>   -1.2486    1.0000 </r>
       <r>   -1.2456    1.0000 </r>
       <r>   -1.2398    1.0000 </r>
       <r>   -1.1542    1.0000 </r>
       <r>   -1.1511    1.0000 </r>
       <r>   -1.1478    1.0000 </r>
       <r>   -1.0377    1.0000 </r>
       <r>   -1.0326    1.0000 </r>
       <r>   -1.0276    1.0000 </r>
       <r>   -0.9530    1.0000 </r>
       <r>   -0.9478    1.0000 </r>
       <r>   -0.9393    1.0000 </r>
       <r>   -0.2446    1.0000 </r>
       <r>   -0.1672    1.0000 </r>
       <r>   -0.1638    1.0000 </r>
       <r>   -0.1626    1.0000 </r>
       <r>   -0.1601    1.0000 </r>
       <r>   -0.1559    1.0000 </r>
       <r>   -0.1511    1.0000 </r>
       <r>    0.7093    1.0000 </r>
       <r>    0.7136    1.0000 </r>
       <r>    0.7199    1.0000 </r>
       <r>    1.0430    1.0000 </r>
       <r>    1.0469    1.0000 </r>
       <r>    1.0514    1.0000 </r>
       <r>    1.6518    1.0000 </r>
       <r>    1.6542    1.0000 </r>
       <r>    1.6568    1.0000 </r>
       <r>    1.6582    1.0000 </r>
       <r>    1.6595    1.0000 </r>
       <r>    1.6613    1.0000 </r>
       <r>    1.7131    1.0000 </r>
       <r>    1.7155    1.0000 </r>
       <r>    1.7195    1.0000 </r>
       <r>    2.2660    1.0000 </r>
       <r>    2.2677    1.0000 </r>
       <r>    2.2694    1.0000 </r>
       <r>    2.3650    1.0000 </r>
       <r>    2.3672    1.0000 </r>
       <r>    2.3701    1.0000 </r>
       <r>    2.3724    1.0000 </r>
       <r>    2.3740    1.0000 </r>
       <r>    2.3764    1.0000 </r>
       <r>    2.4207    1.0000 </r>
       <r>    2.4255    1.0000 </r>
       <r>    2.4288    1.0000 </r>
       <r>    2.7292    1.0000 </r>
       <r>    2.7327    1.0000 </r>
       <r>    2.7341    1.0000 </r>
       <r>    2.7347    1.0000 </r>
       <r>    2.7379    1.0000 </r>
       <r>    2.7410    1.0000 </r>
       <r>    2.9966    1.0000 </r>
       <r>    2.9995    1.0000 </r>
       <r>    3.0011    1.0000 </r>
       <r>    3.0094    1.0000 </r>
       <r>    3.0142    1.0000 </r>
       <r>    3.0176    1.0000 </r>
       <r>    3.3582    1.0000 </r>
       <r>    3.3619    1.0000 </r>
       <r>    3.3656    1.0000 </r>
       <r>    3.3819    1.0000 </r>
       <r>    3.3844    1.0000 </r>
       <r>    3.3869    1.0000 </r>
       <r>    3.4638    1.0000 </r>
       <r>    3.4658    1.0000 </r>
       <r>    3.4704    1.0000 </r>
       <r>    3.7338    1.0000 </r>
       <r>    3.7387    1.0000 </r>
       <r>    3.7406    1.0000 </r>
       <r>    3.7417    1.0000 </r>
       <r>    3.7435    1.0000 </r>
       <r>    3.7491    1.0000 </r>
       <r>    3.7774    1.0000 </r>
       <r>    3.7798    1.0000 </r>
       <r>    3.7851    1.0000 </r>
       <r>    4.0406    1.0000 </r>
       <r>    4.0949    1.0000 </r>
       <r>    4.0978    1.0000 </r>
       <r>    4.1011    1.0000 </r>
       <r>    4.3376    1.0000 </r>
       <r>    4.3402    1.0000 </r>
       <r>    4.3451    1.0000 </r>
       <r>    4.4007    1.0000 </r>
       <r>    4.4053    1.0000 </r>
       <r>    4.4118    1.0000 </r>
       <r>    4.5588    1.0000 </r>
       <r>    4.5670    1.0000 </r>
       <r>    4.8654    1.0000 </r>
       <r>    4.8691    1.0000 </r>
       <r>    4.8756    1.0000 </r>
       <r>    5.3451    1.0000 </r>
       <r>    5.3544    1.0000 </r>
       <r>    6.5598    0.0000 </r>
       <r>    6.5634    0.0000 </r>
       <r>    6.5670    0.0000 </r>
       <r>    7.0005    0.0000 </r>
       <r>    7.0029    0.0000 </r>
       <r>    7.0099    0.0000 </r>
       <r>    7.2337    0.0000 </r>
       <r>    7.4870    0.0000 </r>
       <r>    7.4896    0.0000 </r>
       <r>    7.4955    0.0000 </r>
       <r>    7.6158    0.0000 </r>
       <r>    7.6196    0.0000 </r>
       <r>    7.6233    0.0000 </r>
       <r>    7.7759    0.0000 </r>
       <r>    7.7798    0.0000 </r>
       <r>    7.7831    0.0000 </r>
       <r>    7.7979    0.0000 </r>
       <r>    7.8013    0.0000 </r>
       <r>    7.8051    0.0000 </r>
       <r>    8.0245    0.0000 </r>
       <r>    8.0272    0.0000 </r>
       <r>    8.0291    0.0000 </r>
       <r>    8.0304    0.0000 </r>
       <r>    8.0341    0.0000 </r>
       <r>    8.0377    0.0000 </r>
       <r>    8.0814    0.0000 </r>
       <r>    8.2920    0.0000 </r>
       <r>    8.2944    0.0000 </r>
       <r>    8.2985    0.0000 </r>
       <r>    8.4951    0.0000 </r>
       <r>    8.5001    0.0000 </r>
       <r>    8.5014    0.0000 </r>
       <r>    8.5042    0.0000 </r>
       <r>    8.5082    0.0000 </r>
       <r>    8.5237    0.0000 </r>
       <r>    8.5474    0.0000 </r>
      </set>
      <set comment="kpoint 2">
       <r>   -5.9931    1.0000 </r>
       <r>   -5.4691    1.0000 </r>
       <r>   -5.4633    1.0000 </r>
       <r>   -5.4623    1.0000 </r>
       <r>   -4.9696    1.0000 </r>
       <r>   -4.9638    1.0000 </r>
       <r>   -4.9630    1.0000 </r>
       <r>   -4.5313    1.0000 </r>
       <r>   -4.4363    1.0000 </r>
       <r>   -4.4306    1.0000 </r>
       <r>   -4.4294    1.0000 </r>
       <r>   -4.0237    1.0000 </r>
       <r>   -4.0227    1.0000 </r>
       <r>   -4.0155    1.0000 </r>
       <r>   -4.0140    1.0000 </r>
       <r>   -4.0131    1.0000 </r>
       <r>   -4.0125    1.0000 </r>
       <r>   -3.8289    1.0000 </r>
       <r>   -3.8243    1.0000 </r>
       <r>   -3.8217    1.0000 </r>
       <r>   -3.3311    1.0000 </r>
       <r>   -3.3250    1.0000 </r>
       <r>   -3.3237    1.0000 </r>
       <r>   -2.9632    1.0000 </r>
       <r>   -2.9592    1.0000 </r>
       <r>   -2.9561    1.0000 </r>
       <r>   -2.7987    1.0000 </r>
       <r>   -2.7954    1.0000 </r>
       <r>   -2.7900    1.0000 </r>
       <r>   -2.7889    1.0000 </r>
       <r>   -2.7874    1.0000 </r>
       <r>   -2.7863    1.0000 </r>
       <r>   -1.2573    1.0000 </r>
       <r>   -1.2529    1.0000 </r>
       <r>   -1.2476    1.0000 </r>
       <r>   -1.2462    1.0000 </r>
       <r>   -1.2442    1.0000 </r>
       <r>   -1.2423    1.0000 </r>
       <r>   -1.1533    1.0000 </r>
       <r>   -1.1507    1.0000 </r>
       <r>   -1.1470    1.0000 </r>
       <r>   -1.0336    1.0000 </r>
       <r>   -1.0323    1.0000 </r>
       <r>   -1.0269    1.0000 </r>
       <r>   -0.9561    1.0000 </r>
       <r>   -0.9502    1.0000 </r>
       <r>   -0.9460    1.0000 </r>
       <r>   -0.2481    1.0000 </r>
       <r>   -0.1660    1.0000 </r>
       <r>   -0.1646    1.0000 </r>
       <r>   -0.1590    1.0000 </r>
       <r>   -0.1559    1.0000 </r>
       <r>   -0.1550    1.0000 </r>
       <r>   -0.1517    1.0000 </r>
       <r>    0.7084    1.0000 </r>
       <r>    0.7112    1.0000 </r>
       <r>    0.7164    1.0000 </r>
       <r>    1.0448    1.0000 </r>
       <r>    1.0468    1.0000 </r>
       <r>    1.0498    1.0000 </r>
       <r>    1.6529    1.0000 </r>
       <r>    1.6551    1.0000 </r>
       <r>    1.6567    1.0000 </r>
       <r>    1.6577    1.0000 </r>
       <r>    1.6593    1.0000 </r>
       <r>    1.6606    1.0000 </r>
       <r>    1.7145    1.0000 </r>
       <r>    1.7179    1.0000 </r>
       <r>    1.7191    1.0000 </r>
       <r>    2.2644    1.0000 </r>
       <r>    2.2655    1.0000 </r>
       <r>    2.2677    1.0000 </r>
       <r>    2.3680    1.0000 </r>
       <r>    2.3690    1.0000 </r>
       <r>    2.3700    1.0000 </r>
       <r>    2.3723    1.0000 </r>
       <r>    2.3755    1.0000 </r>
       <r>    2.3774    1.0000 </r>
       <r>    2.4241    1.0000 </r>
       <r>    2.4275    1.0000 </r>
       <r>    2.4301    1.0000 </r>
       <r>    2.7292    1.0000 </r>
       <r>    2.7307    1.0000 </r>
       <r>    2.7346    1.0000 </r>
       <r>    2.7364    1.0000 </r>
       <r>    2.7377    1.0000 </r>
       <r>    2.7400    1.0000 </r>
       <r>    2.9988    1.0000 </r>
       <r>    3.0010    1.0000 </r>
       <r>    3.0016    1.0000 </r>
       <r>    3.0118    1.0000 </r>
       <r>    3.0145    1.0000 </r>
       <r>    3.0175    1.0000 </r>
       <r>    3.3559    1.0000 </r>
       <r>    3.3612    1.0000 </r>
       <r>    3.3631    1.0000 </r>
       <r>    3.3781    1.0000 </r>
       <r>    3.3815    1.0000 </r>
       <r>    3.3847    1.0000 </r>
       <r>    3.4651    1.0000 </r>
       <r>    3.4671    1.0000 </r>
       <r>    3.4709    1.0000 </r>
       <r>    3.7308    1.0000 </r>
       <r>    3.7357    1.0000 </r>
       <r>    3.7391    1.0000 </r>
       <r>    3.7406    1.0000 </r>
       <r>    3.7424    1.0000 </r>
       <r>    3.7436    1.0000 </r>
       <r>    3.7791    1.0000 </r>
       <r>    3.7812    1.0000 </r>
       <r>    3.7856    1.0000 </r>
       <r>    4.0365    1.0000 </r>
       <r>    4.0981    1.0000 </r>
       <r>    4.1008    1.0000 </r>
       <r>    4.1017    1.0000 </r>
       <r>    4.3399    1.0000 </r>
       <r>    4.3421    1.0000 </r>
       <r>    4.3467    1.0000 </r>
       <r>    4.3980    1.0000 </r>
       <r>    4.4008    1.0000 </r>
       <r>    4.4052    1.0000 </r>
       <r>    4.5617    1.0000 </r>
       <r>    4.5665    1.0000 </r>
       <r>    4.8688    1.0000 </r>
       <r>    4.8716    1.0000 </r>
       <r>    4.8777    1.0000 </r>
       <r>    5.3493    1.0000 </r>
       <r>    5.3547    1.0000 </r>
       <r>    6.5618    0.0000 </r>
       <r>    6.5657    0.0000 </r>
       <r>    6.5675    0.0000 </r>
       <r>    7.0012    0.0000 </r>
       <r>    7.0044    0.0000 </r>
       <r>    7.0100    0.0000 </r>
       <r>    7.2351    0.0000 </r>
       <r>    7.4887    0.0000 </r>
       <r>    7.4921    0.0000 </r>
       <r>    7.4959    0.0000 </r>
       <r>    7.6153    0.0000 </r>
       <r>    7.6175    0.0000 </r>
       <r>    7.6218    0.0000 </r>
       <r>    7.7781    0.0000 </r>
       <r>    7.7799    0.0000 </r>
       <r>    7.7826    0.0000 </r>
       <r>    7.7990    0.0000 </r>
       <r>    7.8029    0.0000 </r>
       <r>    7.8040    0.0000 </r>
       <r>    8.0233    0.0000 </r>
       <r>    8.0248    0.0000 </r>
       <r>    8.0282    0.0000 </r>
       <r>    8.0295    0.0000 </r>
       <r>    8.0326    0.0000 </r>
       <r>    8.0343    0.0000 </r>
       <r>    8.0837    0.0000 </r>
       <r>    8.2928    0.0000 </r>
       <r>    8.2947    0.0000 </r>
       <r>    8.2981    0.0000 </r>
       <r>    8.4943    0.0000 </r>
       <r>    8.4967    0.0000 </r>
       <r>    8.5013    0.0000 </r>
       <r>    8.5047    0.0000 </r>
       <r>    8.5077    0.0000 </r>
       <r>    8.5234    0.0000 </r>
       <r>    8.5398    0.0000 </r>
      </set>
      <set comment="kpoint 3">
       <r>   -5.9932    1.0000 </r>
       <r>   -5.4690    1.0000 </r>
       <r>   -5.4640    1.0000 </r>
       <r>   -5.4612    1.0000 </r>
       <r>   -4.9697    1.0000 </r>
       <r>   -4.9648    1.0000 </r>
       <r>   -4.9621    1.0000 </r>
       <r>   -4.5322    1.0000 </r>
       <r>   -4.4369    1.0000 </r>
       <r>   -4.4315    1.0000 </r>
       <r>   -4.4289    1.0000 </r>
       <r>   -4.0246    1.0000 </r>
       <r>   -4.0191    1.0000 </r>
       <r>   -4.0176    1.0000 </r>
       <r>   -4.0146    1.0000 </r>
       <r>   -4.0144    1.0000 </r>
       <r>   -4.0085    1.0000 </r>
       <r>   -3.8283    1.0000 </r>
       <r>   -3.8243    1.0000 </r>
       <r>   -3.8202    1.0000 </r>
       <r>   -3.3335    1.0000 </r>
       <r>   -3.3272    1.0000 </r>
       <r>   -3.3244    1.0000 </r>
       <r>   -2.9628    1.0000 </r>
       <r>   -2.9591    1.0000 </r>
       <r>   -2.9557    1.0000 </r>
       <r>   -2.7985    1.0000 </r>
       <r>   -2.7939    1.0000 </r>
       <r>   -2.7922    1.0000 </r>
       <r>   -2.7893    1.0000 </r>
       <r>   -2.7885    1.0000 </r>
       <r>   -2.7824    1.0000 </r>
       <r>   -1.2575    1.0000 </r>
       <r>   -1.2527    1.0000 </r>
       <r>   -1.2503    1.0000 </r>
       <r>   -1.2473    1.0000 </r>
       <r>   -1.2453    1.0000 </r>
       <r>   -1.2403    1.0000 </r>
       <r>   -1.1542    1.0000 </r>
       <r>   -1.1513    1.0000 </r>
       <r>   -1.1477    1.0000 </r>
       <r>   -1.0377    1.0000 </r>
       <r>   -1.0327    1.0000 </r>
       <r>   -1.0276    1.0000 </r>
       <r>   -0.9535    1.0000 </r>
       <r>   -0.9469    1.0000 </r>
       <r>   -0.9396    1.0000 </r>
       <r>   -0.2446    1.0000 </r>
       <r>   -0.1684    1.0000 </r>
       <r>   -0.1650    1.0000 </r>
       <r>   -0.1616    1.0000 </r>
       <r>   -0.1583    1.0000 </r>
       <r>   -0.1552    1.0000 </r>
       <r>   -0.1522    1.0000 </r>
       <r>    0.7088    1.0000 </r>
       <r>    0.7146    1.0000 </r>
       <r>    0.7194    1.0000 </r>
       <r>    1.0428    1.0000 </r>
       <r>    1.0473    1.0000 </r>
       <r>    1.0511    1.0000 </r>
       <r>    1.6512    1.0000 </r>
       <r>    1.6554    1.0000 </r>
       <r>    1.6566    1.0000 </r>
       <r>    1.6578    1.0000 </r>
       <r>    1.6593    1.0000 </r>
       <r>    1.6615    1.0000 </r>
       <r>    1.7127    1.0000 </r>
       <r>    1.7160    1.0000 </r>
       <r>    1.7193    1.0000 </r>
       <r>    2.2656    1.0000 </r>
       <r>    2.2676    1.0000 </r>
       <r>    2.2699    1.0000 </r>
       <r>    2.3658    1.0000 </r>
       <r>    2.3667    1.0000 </r>
       <r>    2.3697    1.0000 </r>
       <r>    2.3715    1.0000 </r>
       <r>    2.3745    1.0000 </r>
       <r>    2.3770    1.0000 </r>
       <r>    2.4205    1.0000 </r>
       <r>    2.4260    1.0000 </r>
       <r>    2.4286    1.0000 </r>
       <r>    2.7277    1.0000 </r>
       <r>    2.7327    1.0000 </r>
       <r>    2.7353    1.0000 </r>
       <r>    2.7359    1.0000 </r>
       <r>    2.7378    1.0000 </r>
       <r>    2.7403    1.0000 </r>
       <r>    2.9977    1.0000 </r>
       <r>    2.9993    1.0000 </r>
       <r>    3.0008    1.0000 </r>
       <r>    3.0094    1.0000 </r>
       <r>    3.0134    1.0000 </r>
       <r>    3.0176    1.0000 </r>
       <r>    3.3582    1.0000 </r>
       <r>    3.3617    1.0000 </r>
       <r>    3.3653    1.0000 </r>
       <r>    3.3803    1.0000 </r>
       <r>    3.3844    1.0000 </r>
       <r>    3.3890    1.0000 </r>
       <r>    3.4632    1.0000 </r>
       <r>    3.4670    1.0000 </r>
       <r>    3.4697    1.0000 </r>
       <r>    3.7335    1.0000 </r>
       <r>    3.7390    1.0000 </r>
       <r>    3.7407    1.0000 </r>
       <r>    3.7422    1.0000 </r>
       <r>    3.7437    1.0000 </r>
       <r>    3.7484    1.0000 </r>
       <r>    3.7767    1.0000 </r>
       <r>    3.7810    1.0000 </r>
       <r>    3.7845    1.0000 </r>
       <r>    4.0404    1.0000 </r>
       <r>    4.0958    1.0000 </r>
       <r>    4.0983    1.0000 </r>
       <r>    4.1000    1.0000 </r>
       <r>    4.3372    1.0000 </r>
       <r>    4.3411    1.0000 </r>
       <r>    4.3447    1.0000 </r>
       <r>    4.4004    1.0000 </r>
       <r>    4.4057    1.0000 </r>
       <r>    4.4116    1.0000 </r>
       <r>    4.5587    1.0000 </r>
       <r>    4.5671    1.0000 </r>
       <r>    4.8649    1.0000 </r>
       <r>    4.8702    1.0000 </r>
       <r>    4.8751    1.0000 </r>
       <r>    5.3451    1.0000 </r>
       <r>    5.3544    1.0000 </r>
       <r>    6.5603    0.0000 </r>
       <r>    6.5632    0.0000 </r>
       <r>    6.5666    0.0000 </r>
       <r>    7.0001    0.0000 </r>
       <r>    7.0036    0.0000 </r>
       <r>    7.0097    0.0000 </r>
       <r>    7.2337    0.0000 </r>
       <r>    7.4869    0.0000 </r>
       <r>    7.4896    0.0000 </r>
       <r>    7.4955    0.0000 </r>
       <r>    7.6157    0.0000 </r>
       <r>    7.6196    0.0000 </r>
       <r>    7.6232    0.0000 </r>
       <r>    7.7762    0.0000 </r>
       <r>    7.7795    0.0000 </r>
       <r>    7.7833    0.0000 </r>
       <r>    7.7995    0.0000 </r>
       <r>    7.8012    0.0000 </r>
       <r>    7.8035    0.0000 </r>
       <r>    8.0233    0.0000 </r>
       <r>    8.0275    0.0000 </r>
       <r>    8.0298    0.0000 </r>
       <r>    8.0327    0.0000 </r>
       <r>    8.0341    0.0000 </r>
       <r>    8.0355    0.0000 </r>
       <r>    8.0815    0.0000 </r>
       <r>    8.2919    0.0000 </r>
       <r>    8.2945    0.0000 </r>
       <r>    8.2985    0.0000 </r>
       <r>    8.4920    0.0000 </r>
       <r>    8.4993    0.0000 </r>
       <r>    8.5014    0.0000 </r>
       <r>    8.5052    0.0000 </r>
       <r>    8.5097    0.0000 </r>
       <r>    8.5177    0.0000 </r>
       <r>    8.5410    0.0000 </r>
      </set>
      <set comment="kpoint 4">
       <r>   -5.9932    1.0000 </r>
       <r>   -5.4676    1.0000 </r>
       <r>   -5.4644    1.0000 </r>
       <r>   -5.4619    1.0000 </r>
       <r>   -4.9684    1.0000 </r>
       <r>   -4.9652    1.0000 </r>
       <r>   -4.9631    1.0000 </r>
       <r>   -4.5332    1.0000 </r>
       <r>   -4.4361    1.0000 </r>
       <r>   -4.4323    1.0000 </r>
       <r>   -4.4300    1.0000 </r>
       <r>   -4.0220    1.0000 </r>
       <r>   -4.0194    1.0000 </r>
       <r>   -4.0170    1.0000 </r>
       <r>   -4.0166    1.0000 </r>
       <r>   -4.0118    1.0000 </r>
       <r>   -4.0091    1.0000 </r>
       <r>   -3.8270    1.0000 </r>
       <r>   -3.8244    1.0000 </r>
       <r>   -3.8196    1.0000 </r>
       <r>   -3.3342    1.0000 </r>
       <r>   -3.3285    1.0000 </r>
       <r>   -3.3276    1.0000 </r>
       <r>   -2.9622    1.0000 </r>
       <r>   -2.9590    1.0000 </r>
       <r>   -2.9554    1.0000 </r>
       <r>   -2.7967    1.0000 </r>
       <r>   -2.7945    1.0000 </r>
       <r>   -2.7915    1.0000 </r>
       <r>   -2.7911    1.0000 </r>
       <r>   -2.7868    1.0000 </r>
       <r>   -2.7826    1.0000 </r>
       <r>   -1.2555    1.0000 </r>
       <r>   -1.2540    1.0000 </r>
       <r>   -1.2492    1.0000 </r>
       <r>   -1.2489    1.0000 </r>
       <r>   -1.2465    1.0000 </r>
       <r>   -1.2419    1.0000 </r>
       <r>   -1.1551    1.0000 </r>
       <r>   -1.1516    1.0000 </r>
       <r>   -1.1492    1.0000 </r>
       <r>   -1.0382    1.0000 </r>
       <r>   -1.0327    1.0000 </r>
       <r>   -1.0318    1.0000 </r>
       <r>   -0.9481    1.0000 </r>
       <r>   -0.9453    1.0000 </r>
       <r>   -0.9346    1.0000 </r>
       <r>   -0.2411    1.0000 </r>
       <r>   -0.1679    1.0000 </r>
       <r>   -0.1648    1.0000 </r>
       <r>   -0.1611    1.0000 </r>
       <r>   -0.1604    1.0000 </r>
       <r>   -0.1587    1.0000 </r>
       <r>   -0.1563    1.0000 </r>
       <r>    0.7118    1.0000 </r>
       <r>    0.7147    1.0000 </r>
       <r>    0.7231    1.0000 </r>
       <r>    1.0440    1.0000 </r>
       <r>    1.0471    1.0000 </r>
       <r>    1.0501    1.0000 </r>
       <r>    1.6530    1.0000 </r>
       <r>    1.6542    1.0000 </r>
       <r>    1.6561    1.0000 </r>
       <r>    1.6577    1.0000 </r>
       <r>    1.6587    1.0000 </r>
       <r>    1.6613    1.0000 </r>
       <r>    1.7124    1.0000 </r>
       <r>    1.7154    1.0000 </r>
       <r>    1.7174    1.0000 </r>
       <r>    2.2677    1.0000 </r>
       <r>    2.2699    1.0000 </r>
       <r>    2.2711    1.0000 </r>
       <r>    2.3648    1.0000 </r>
       <r>    2.3662    1.0000 </r>
       <r>    2.3687    1.0000 </r>
       <r>    2.3695    1.0000 </r>
       <r>    2.3734    1.0000 </r>
       <r>    2.3748    1.0000 </r>
       <r>    2.4201    1.0000 </r>
       <r>    2.4224    1.0000 </r>
       <r>    2.4263    1.0000 </r>
       <r>    2.7307    1.0000 </r>
       <r>    2.7340    1.0000 </r>
       <r>    2.7343    1.0000 </r>
       <r>    2.7352    1.0000 </r>
       <r>    2.7373    1.0000 </r>
       <r>    2.7391    1.0000 </r>
       <r>    2.9965    1.0000 </r>
       <r>    2.9974    1.0000 </r>
       <r>    2.9997    1.0000 </r>
       <r>    3.0099    1.0000 </r>
       <r>    3.0130    1.0000 </r>
       <r>    3.0148    1.0000 </r>
       <r>    3.3611    1.0000 </r>
       <r>    3.3636    1.0000 </r>
       <r>    3.3660    1.0000 </r>
       <r>    3.3840    1.0000 </r>
       <r>    3.3875    1.0000 </r>
       <r>    3.3913    1.0000 </r>
       <r>    3.4635    1.0000 </r>
       <r>    3.4653    1.0000 </r>
       <r>    3.4678    1.0000 </r>
       <r>    3.7398    1.0000 </r>
       <r>    3.7407    1.0000 </r>
       <r>    3.7410    1.0000 </r>
       <r>    3.7433    1.0000 </r>
       <r>    3.7461    1.0000 </r>
       <r>    3.7518    1.0000 </r>
       <r>    3.7774    1.0000 </r>
       <r>    3.7792    1.0000 </r>
       <r>    3.7824    1.0000 </r>
       <r>    4.0442    1.0000 </r>
       <r>    4.0941    1.0000 </r>
       <r>    4.0950    1.0000 </r>
       <r>    4.0984    1.0000 </r>
       <r>    4.3367    1.0000 </r>
       <r>    4.3392    1.0000 </r>
       <r>    4.3416    1.0000 </r>
       <r>    4.4059    1.0000 </r>
       <r>    4.4079    1.0000 </r>
       <r>    4.4174    1.0000 </r>
       <r>    4.5594    1.0000 </r>
       <r>    4.5642    1.0000 </r>
       <r>    4.8642    1.0000 </r>
       <r>    4.8675    1.0000 </r>
       <r>    4.8707    1.0000 </r>
       <r>    5.3448    1.0000 </r>
       <r>    5.3501    1.0000 </r>
       <r>    6.5592    0.0000 </r>
       <r>    6.5611    0.0000 </r>
       <r>    6.5650    0.0000 </r>
       <r>    6.9994    0.0000 </r>
       <r>    7.0041    0.0000 </r>
       <r>    7.0076    0.0000 </r>
       <r>    7.2323    0.0000 </r>
       <r>    7.4854    0.0000 </r>
       <r>    7.4894    0.0000 </r>
       <r>    7.4927    0.0000 </r>
       <r>    7.6172    0.0000 </r>
       <r>    7.6215    0.0000 </r>
       <r>    7.6240    0.0000 </r>
       <r>    7.7751    0.0000 </r>
       <r>    7.7806    0.0000 </r>
       <r>    7.7821    0.0000 </r>
       <r>    7.7983    0.0000 </r>
       <r>    7.8001    0.0000 </r>
       <r>    7.8033    0.0000 </r>
       <r>    8.0277    0.0000 </r>
       <r>    8.0292    0.0000 </r>
       <r>    8.0302    0.0000 </r>
       <r>    8.0325    0.0000 </r>
       <r>    8.0359    0.0000 </r>
       <r>    8.0377    0.0000 </r>
       <r>    8.0792    0.0000 </r>
       <r>    8.2918    0.0000 </r>
       <r>    8.2952    0.0000 </r>
       <r>    8.2972    0.0000 </r>
       <r>    8.4935    0.0000 </r>
       <r>    8.5005    0.0000 </r>
       <r>    8.5015    0.0000 </r>
       <r>    8.5069    0.0000 </r>
       <r>    8.5082    0.0000 </r>
       <r>    8.5142    0.0000 </r>
       <r>    8.5418    0.0000 </r>
      </set>
     </set>
    </set>
   </array>
  </eigenvalues>
  <separator name="orbital magnetization" >
   <v name="MAGDIPOLOUT">      0.00000000      0.00000000      0.00000000</v>
  </separator>
  <dos>
   <i name="efermi">      5.59898321 </i>
   <total>
    <array>
     <dimension dim="1">gridpoints</dimension>
     <dimension dim="2">spin</dimension>
     <field>energy</field>
     <field>total</field>
     <field>integrated</field>
     <set>
      <set comment="spin 1">
       <r>    -6.7203     0.0000     0.0000 </r>
       <r>    -6.6669     0.0000     0.0000 </r>
       <r>    -6.6136     0.0000     0.0000 </r>
       <r>    -6.5603     0.0000     0.0000 </r>
       <r>    -6.5070     0.0000     0.0000 </r>
       <r>    -6.4537     0.0000     0.0000 </r>
       <r>    -6.4004     0.0000     0.0000 </r>
       <r>    -6.3471     0.0000     0.0000 </r>
       <r>    -6.2937     0.0000     0.0000 </r>
       <r>    -6.2404     0.0000     0.0000 </r>
       <r>    -6.1871     0.0000     0.0000 </r>
       <r>    -6.1338     0.0013     0.0001 </r>
       <r>    -6.0805     0.2525     0.0135 </r>
       <r>    -6.0272     6.0544     0.3363 </r>
       <r>    -5.9738    20.2376     1.4153 </r>
       <r>    -5.9205    10.2179     1.9601 </r>
       <r>    -5.8672     0.7419     1.9996 </r>
       <r>    -5.8139     0.0069     2.0000 </r>
       <r>    -5.7606     0.0000     2.0000 </r>
       <r>    -5.7073     0.0000     2.0000 </r>
       <r>    -5.6539     0.0000     2.0000 </r>
       <r>    -5.6006     0.0072     2.0004 </r>
       <r>    -5.5473     1.1169     2.0599 </r>
       <r>    -5.4940    21.9377     3.2296 </r>
       <r>    -5.4407    61.4865     6.5077 </r>
       <r>    -5.3874    26.3487     7.9125 </r>
       <r>    -5.3341     1.6274     7.9993 </r>
       <r>    -5.2807     0.0129     8.0000 </r>
       <r>    -5.2274     0.0000     8.0000 </r>
       <r>    -5.1741     0.0000     8.0000 </r>
       <r>    -5.1208     0.0007     8.0000 </r>
       <r>    -5.0675     0.2272     8.0121 </r>
       <r>    -5.0142     9.3528     8.5108 </r>
       <r>    -4.9608    52.5816    11.3142 </r>
       <r>    -4.9075    44.6304    13.6937 </r>
       <r>    -4.8542     5.6490    13.9949 </r>
       <r>    -4.8009     0.0955    14.0000 </r>
       <r>    -4.7476     0.0002    14.0000 </r>
       <r>    -4.6943     0.0001    14.0000 </r>
       <r>    -4.6410     0.0395    14.0021 </r>
       <r>    -4.5876     2.1593    14.1172 </r>
       <r>    -4.5343    15.9067    14.9653 </r>
       <r>    -4.4810    26.2736    16.3661 </r>
       <r>    -4.4277    55.3342    19.3163 </r>
       <r>    -4.3744    44.6092    21.6946 </r>
       <r>    -4.3211     5.6318    21.9949 </r>
       <r>    -4.2677     0.0952    22.0000 </r>
       <r>    -4.2144     0.0002    22.0000 </r>
       <r>    -4.1611     0.0056    22.0003 </r>
       <r>    -4.1078     1.1692    22.0626 </r>
       <r>    -4.0545    31.0540    23.7183 </r>
       <r>    -4.0012   117.6436    29.9905 </r>
       <r>    -3.9478    69.1024    33.6748 </r>
       <r>    -3.8945     8.7244    34.1399 </r>
       <r>    -3.8412    33.0464    35.9018 </r>
       <r>    -3.7879    59.7055    39.0851 </r>
       <r>    -3.7346    16.5152    39.9656 </r>
       <r>    -3.6813     0.6426    39.9998 </r>
       <r>    -3.6280     0.0031    40.0000 </r>
       <r>    -3.5746     0.0000    40.0000 </r>
       <r>    -3.5213     0.0000    40.0000 </r>
       <r>    -3.4680     0.0048    40.0003 </r>
       <r>    -3.4147     0.8478    40.0455 </r>
       <r>    -3.3614    19.0086    41.0589 </r>
       <r>    -3.3081    60.7202    44.2962 </r>
       <r>    -3.2547    29.7991    45.8850 </r>
       <r>    -3.2014     2.1369    45.9989 </r>
       <r>    -3.1481     0.0199    46.0000 </r>
       <r>    -3.0948     0.0074    46.0004 </r>
       <r>    -3.0415     1.1365    46.0610 </r>
       <r>    -2.9882    22.1415    47.2415 </r>
       <r>    -2.9349    61.5282    50.5219 </r>
       <r>    -2.8815    27.3527    51.9802 </r>
       <r>    -2.8282    33.5189    53.7673 </r>
       <r>    -2.7749   118.1688    60.0675 </r>
       <r>    -2.7216    67.8667    63.6859 </r>
       <r>    -2.6683     5.8244    63.9964 </r>
       <r>    -2.6150     0.0668    64.0000 </r>
       <r>    -2.5616     0.0001    64.0000 </r>
       <r>    -2.5083     0.0000    64.0000 </r>
       <r>    -2.4550     0.0000    64.0000 </r>
       <r>    -2.4017     0.0000    64.0000 </r>
       <r>    -2.3484     0.0000    64.0000 </r>
       <r>    -2.2951     0.0000    64.0000 </r>
       <r>    -2.2417     0.0000    64.0000 </r>
       <r>    -2.1884     0.0000    64.0000 </r>
       <r>    -2.1351     0.0000    64.0000 </r>
       <r>    -2.0818     0.0000    64.0000 </r>
       <r>    -2.0285     0.0000    64.0000 </r>
       <r>    -1.9752     0.0000    64.0000 </r>
       <r>    -1.9219     0.0000    64.0000 </r>
       <r>    -1.8685     0.0000    64.0000 </r>
       <r>    -1.8152     0.0000    64.0000 </r>
       <r>    -1.7619     0.0000    64.0000 </r>
       <r>    -1.7086     0.0000    64.0000 </r>
       <r>    -1.6553     0.0000    64.0000 </r>
       <r>    -1.6020     0.0000    64.0000 </r>
       <r>    -1.5486     0.0000    64.0000 </r>
       <r>    -1.4953     0.0000    64.0000 </r>
       <r>    -1.4420     0.0000    64.0000 </r>
       <r>    -1.3887     0.0102    64.0005 </r>
       <r>    -1.3354     1.7327    64.0929 </r>
       <r>    -1.2821    38.0130    66.1196 </r>
       <r>    -1.2288   122.4436    72.6478 </r>
       <r>    -1.1754    86.1138    77.2390 </r>
       <r>    -1.1221    66.6421    80.7920 </r>
       <r>    -1.0688    38.9212    82.8672 </r>
       <r>    -1.0155    63.9086    86.2745 </r>
       <r>    -0.9622    67.1791    89.8562 </r>
       <r>    -0.9089    61.2830    93.1235 </r>
       <r>    -0.8555    15.8140    93.9667 </r>
       <r>    -0.8022     0.6221    93.9998 </r>
       <r>    -0.7489     0.0032    94.0000 </r>
       <r>    -0.6956     0.0000    94.0000 </r>
       <r>    -0.6423     0.0000    94.0000 </r>
       <r>    -0.5890     0.0000    94.0000 </r>
       <r>    -0.5356     0.0000    94.0000 </r>
       <r>    -0.4823     0.0000    94.0000 </r>
       <r>    -0.4290     0.0000    94.0000 </r>
       <r>    -0.3757     0.0041    94.0002 </r>
       <r>    -0.3224     0.5251    94.0282 </r>
       <r>    -0.2691     8.9153    94.5035 </r>
       <r>    -0.2158    33.6950    96.3000 </r>
       <r>    -0.1624   100.6881   101.6683 </r>
       <r>    -0.1091   101.4841   107.0789 </r>
       <r>    -0.0558    16.8815   107.9790 </r>
       <r>    -0.0025     0.3929   107.9999 </r>
       <r>     0.0508     0.0011   108.0000 </r>
       <r>     0.1041     0.0000   108.0000 </r>
       <r>     0.1575     0.0000   108.0000 </r>
       <r>     0.2108     0.0000   108.0000 </r>
       <r>     0.2641     0.0000   108.0000 </r>
       <r>     0.3174     0.0000   108.0000 </r>
       <r>     0.3707     0.0000   108.0000 </r>
       <r>     0.4240     0.0000   108.0000 </r>
       <r>     0.4773     0.0000   108.0000 </r>
       <r>     0.5307     0.0000   108.0000 </r>
       <r>     0.5840     0.0143   108.0008 </r>
       <r>     0.6373     1.7167   108.0923 </r>
       <r>     0.6906    26.7917   109.5207 </r>
       <r>     0.7439    61.2041   112.7838 </r>
       <r>     0.7972    21.6877   113.9401 </r>
       <r>     0.8506     1.1154   113.9996 </r>
       <r>     0.9039     0.0105   114.0002 </r>
       <r>     0.9572     0.6310   114.0338 </r>
       <r>     1.0105    16.3816   114.9072 </r>
       <r>     1.0638    59.6674   118.0884 </r>
       <r>     1.1171    33.1354   119.8550 </r>
       <r>     1.1705     2.6904   119.9985 </r>
       <r>     1.2238     0.0284   120.0000 </r>
       <r>     1.2771     0.0000   120.0000 </r>
       <r>     1.3304     0.0000   120.0000 </r>
       <r>     1.3837     0.0000   120.0000 </r>
       <r>     1.4370     0.0000   120.0000 </r>
       <r>     1.4903     0.0003   120.0000 </r>
       <r>     1.5437     0.1582   120.0085 </r>
       <r>     1.5970    10.1213   120.5481 </r>
       <r>     1.6503    89.0740   125.2971 </r>
       <r>     1.7036   145.3147   133.0447 </r>
       <r>     1.7569    78.3886   137.2240 </r>
       <r>     1.8102    14.1097   137.9763 </r>
       <r>     1.8636     0.4434   137.9999 </r>
       <r>     1.9169     0.0018   138.0000 </r>
       <r>     1.9702     0.0000   138.0000 </r>
       <r>     2.0235     0.0000   138.0000 </r>
       <r>     2.0768     0.0000   138.0000 </r>
       <r>     2.1301     0.0057   138.0003 </r>
       <r>     2.1835     0.9697   138.0520 </r>
       <r>     2.2368    20.5477   139.1475 </r>
       <r>     2.2901    63.9446   142.5568 </r>
       <r>     2.3434    76.0164   146.6096 </r>
       <r>     2.3967   147.4951   154.4734 </r>
       <r>     2.4500   111.1391   160.3989 </r>
       <r>     2.5033    28.4639   161.9164 </r>
       <r>     2.5567     1.5553   161.9994 </r>
       <r>     2.6100     0.0611   162.0026 </r>
       <r>     2.6633     4.8814   162.2629 </r>
       <r>     2.7166    63.2699   165.6362 </r>
       <r>     2.7699   120.3158   172.0509 </r>
       <r>     2.8232    35.1006   173.9223 </r>
       <r>     2.8766     1.4864   174.0015 </r>
       <r>     2.9299     3.8279   174.2056 </r>
       <r>     2.9832    54.8286   177.1288 </r>
       <r>     3.0365   120.8053   183.5697 </r>
       <r>     3.0898    43.2141   185.8736 </r>
       <r>     3.1431     2.3526   185.9991 </r>
       <r>     3.1964     0.0175   186.0000 </r>
       <r>     3.2498     0.0978   186.0052 </r>
       <r>     3.3031     6.6450   186.3595 </r>
       <r>     3.3564    66.9375   189.9283 </r>
       <r>     3.4097   120.6209   196.3593 </r>
       <r>     3.4630    80.6991   200.6618 </r>
       <r>     3.5163    53.5453   203.5166 </r>
       <r>     3.5697     8.8605   203.9890 </r>
       <r>     3.6230     0.3090   204.0055 </r>
       <r>     3.6763     7.8137   204.4221 </r>
       <r>     3.7296    84.2663   208.9148 </r>
       <r>     3.7829   164.5487   217.6878 </r>
       <r>     3.8362    73.3588   221.5990 </r>
       <r>     3.8896     7.3957   221.9933 </r>
       <r>     3.9429     0.2374   222.0060 </r>
       <r>     3.9962     4.0939   222.2242 </r>
       <r>     4.0495    27.9631   223.7151 </r>
       <r>     4.1028    66.2163   227.2455 </r>
       <r>     4.1561    45.9617   229.6959 </r>
       <r>     4.2094     5.6212   229.9956 </r>
       <r>     4.2628     1.6316   230.0826 </r>
       <r>     4.3161    26.2779   231.4836 </r>
       <r>     4.3694    78.1760   235.6516 </r>
       <r>     4.4227    81.9766   240.0223 </r>
       <r>     4.4760    34.8165   241.8785 </r>
       <r>     4.5293    15.1784   242.6878 </r>
       <r>     4.5827    40.4312   244.8434 </r>
       <r>     4.6360    20.2034   245.9206 </r>
       <r>     4.6893     1.4760   245.9993 </r>
       <r>     4.7426     0.0332   246.0010 </r>
       <r>     4.7959     2.0757   246.1117 </r>
       <r>     4.8492    29.3276   247.6753 </r>
       <r>     4.9025    60.7717   250.9154 </r>
       <r>     4.9559    19.4449   251.9521 </r>
       <r>     5.0092     0.8930   251.9997 </r>
       <r>     5.0625     0.0053   252.0000 </r>
       <r>     5.1158     0.0000   252.0000 </r>
       <r>     5.1691     0.0000   252.0000 </r>
       <r>     5.2224     0.0131   252.0007 </r>
       <r>     5.2758     1.4018   252.0754 </r>
       <r>     5.3291    19.6633   253.1238 </r>
       <r>     5.3824    40.4892   255.2825 </r>
       <r>     5.4357    12.8684   255.9686 </r>
       <r>     5.4890     0.5858   255.9998 </r>
       <r>     5.5423     0.0034   256.0000 </r>
       <r>     5.5957     0.0000   256.0000 </r>
       <r>     5.6490     0.0000   256.0000 </r>
       <r>     5.7023     0.0000   256.0000 </r>
       <r>     5.7556     0.0000   256.0000 </r>
       <r>     5.8089     0.0000   256.0000 </r>
       <r>     5.8622     0.0000   256.0000 </r>
       <r>     5.9155     0.0000   256.0000 </r>
       <r>     5.9689     0.0000   256.0000 </r>
       <r>     6.0222     0.0000   256.0000 </r>
       <r>     6.0755     0.0000   256.0000 </r>
       <r>     6.1288     0.0000   256.0000 </r>
       <r>     6.1821     0.0000   256.0000 </r>
       <r>     6.2354     0.0000   256.0000 </r>
       <r>     6.2888     0.0000   256.0000 </r>
       <r>     6.3421     0.0000   256.0000 </r>
       <r>     6.3954     0.0001   256.0000 </r>
       <r>     6.4487     0.0687   256.0037 </r>
       <r>     6.5020     4.6341   256.2507 </r>
       <r>     6.5553    41.4578   258.4611 </r>
       <r>     6.6086    55.0152   261.3943 </r>
       <r>     6.6620    11.0549   261.9837 </r>
       <r>     6.7153     0.3054   261.9999 </r>
       <r>     6.7686     0.0010   262.0000 </r>
       <r>     6.8219     0.0000   262.0000 </r>
       <r>     6.8752     0.0156   262.0008 </r>
       <r>     6.9285     1.8289   262.0983 </r>
       <r>     6.9819    27.7208   263.5763 </r>
       <r>     7.0352    61.1762   266.8379 </r>
       <r>     7.0885    20.7784   267.9458 </r>
       <r>     7.1418     1.1867   268.0090 </r>
       <r>     7.1951     4.9925   268.2752 </r>
       <r>     7.2484    19.6482   269.3228 </r>
       <r>     7.3018    11.6821   269.9456 </r>
       <r>     7.3551     1.0166   269.9998 </r>
       <r>     7.4084     1.1556   270.0614 </r>
       <r>     7.4617    22.1534   271.2425 </r>
       <r>     7.5150    61.6271   274.5282 </r>
       <r>     7.5683    34.3646   276.3604 </r>
       <r>     7.6216    52.1583   279.1412 </r>
       <r>     7.6750    47.1559   281.6554 </r>
       <r>     7.7283    16.8203   282.5522 </r>
       <r>     7.7816    80.7830   286.8592 </r>
       <r>     7.8349   107.8795   292.6108 </r>
       <r>     7.8882    25.1388   293.9511 </r>
       <r>     7.9415     2.3171   294.0747 </r>
       <r>     7.9949    34.5265   295.9155 </r>
       <r>     8.0482   125.9318   302.6296 </r>
       <r>     8.1015    84.8151   307.1516 </r>
       <r>     8.1548    15.1464   307.9591 </r>
       <r>     8.2081     1.5628   308.0424 </r>
       <r>     8.2614    18.5615   309.0320 </r>
       <r>     8.3147    60.7235   312.2696 </r>
       <r>     8.3681    30.2699   313.8834 </r>
       <r>     8.4214     4.6099   314.1292 </r>
       <r>     8.4747    44.8189   316.5188 </r>
       <r>     8.5280   132.2029   323.5672 </r>
       <r>     8.5813    74.0372   327.5146 </r>
       <r>     8.6346     8.8867   327.9884 </r>
       <r>     8.6880     0.2172   328.0000 </r>
       <r>     8.7413     0.0008   328.0000 </r>
       <r>     8.7946     0.0000   328.0000 </r>
       <r>     8.8479     0.0000   328.0000 </r>
       <r>     8.9012     0.0000   328.0000 </r>
       <r>     8.9545     0.0000   328.0000 </r>
       <r>     9.0079     0.0000   328.0000 </r>
       <r>     9.0612     0.0000   328.0000 </r>
       <r>     9.1145     0.0000   328.0000 </r>
       <r>     9.1678     0.0000   328.0000 </r>
       <r>     9.2211     0.0000   328.0000 </r>
       <r>     9.2744     0.0000   328.0000 </r>
      </set>
     </set>
    </array>
   </total>
  </dos>
 </calculation>
 <structure name="finalpos" >
  <crystal>
   <varray name="basis" >
    <v>      10.93252578       0.00000000       0.00000000 </v>
    <v>       0.00000000      10.93252578       0.00000000 </v>
    <v>       0.00000000       0.00000000      10.93252578 </v>
   </varray>
   <i name="volume">   1306.65679237 </i>
   <varray name="rec_basis" >
    <v>       0.09147017       0.00000000       0.00000000 </v>
    <v>       0.00000000       0.09147017       0.00000000 </v>
    <v>       0.00000000       0.00000000       0.09147017 </v>
   </varray>
  </crystal>
  <varray name="positions" >
   <v>       0.44024411       0.43750000       0.43750000 </v>
   <v>       0.93750000       0.43750000       0.43750000 </v>
   <v>       0.43750000       0.93750000       0.43750000 </v>
   <v>       0.93750000       0.93750000       0.43750000 </v>
   <v>       0.43750000       0.43750000       0.93750000 </v>
   <v>       0.93750000       0.43750000       0.93750000 </v>
   <v>       0.43750000       0.93750000       0.93750000 </v>
   <v>       0.93750000       0.93750000       0.93750000 </v>
   <v>       0.43750000       0.18750000       0.18750000 </v>
   <v>       0.93750000       0.18750000       0.18750000 </v>
   <v>       0.43750000       0.68750000       0.18750000 </v>
   <v>       0.93750000       0.68750000       0.18750000 </v>
   <v>       0.43750000       0.18750000       0.68750000 </v>
   <v>       0.93750000       0.18750000       0.68750000 </v>
   <v>       0.43750000       0.68750000       0.68750000 </v>
   <v>       0.93750000       0.68750000       0.68750000 </v>
   <v>       0.18750000       0.43750000       0.18750000 </v>
   <v>       0.68750000       0.43750000       0.18750000 </v>
   <v>       0.18750000       0.93750000       0.18750000 </v>
   <v>       0.68750000       0.93750000       0.18750000 </v>
   <v>       0.18750000       0.43750000       0.68750000 </v>
   <v>       0.68750000       0.43750000       0.68750000 </v>
   <v>       0.18750000       0.93750000       0.68750000 </v>
   <v>       0.68750000       0.93750000       0.68750000 </v>
   <v>       0.18750000       0.18750000       0.43750000 </v>
   <v>       0.68750000       0.18750000       0.43750000 </v>
   <v>       0.18750000       0.68750000       0.43750000 </v>
   <v>       0.68750000       0.68750000       0.43750000 </v>
   <v>       0.18750000       0.18750000       0.93750000 </v>
   <v>       0.68750000       0.18750000       0.93750000 </v>
   <v>       0.18750000       0.68750000       0.93750000 </v>
   <v>       0.68750000       0.68750000       0.93750000 </v>
   <v>       0.06250000       0.06250000       0.06250000 </v>
   <v>       0.56250000       0.06250000       0.06250000 </v>
   <v>       0.06250000       0.56250000       0.06250000 </v>
   <v>       0.56250000       0.56250000       0.06524411 </v>
   <v>       0.06250000       0.06250000       0.56250000 </v>
   <v>       0.56250000       0.06250000       0.56250000 </v>
   <v>       0.06250000       0.56250000       0.56250000 </v>
   <v>       0.56250000       0.56250000       0.56250000 </v>
   <v>       0.06250000       0.31250000       0.31250000 </v>
   <v>       0.56250000       0.31250000       0.31250000 </v>
   <v>       0.06250000       0.81250000       0.31250000 </v>
   <v>       0.56250000       0.81250000       0.31250000 </v>
   <v>       0.06250000       0.31250000       0.81250000 </v>
   <v>       0.56250000       0.31250000       0.81250000 </v>
   <v>       0.06250000       0.81250000       0.81250000 </v>
   <v>       0.56250000       0.81250000       0.81250000 </v>
   <v>       0.31250000       0.06250000       0.31250000 </v>
   <v>       0.81250000       0.06250000       0.31250000 </v>
   <v>       0.31250000       0.56250000       0.31250000 </v>
   <v>       0.81250000       0.56250000       0.31250000 </v>
   <v>       0.31250000       0.06250000       0.81250000 </v>
   <v>       0.81250000       0.06250000       0.81250000 </v>
   <v>       0.31250000       0.56250000       0.81250000 </v>
   <v>       0.81250000       0.56250000       0.81250000 </v>
   <v>       0.31250000       0.31250000       0.06250000 </v>
   <v>       0.81250000       0.31250000       0.06250000 </v>
   <v>       0.31250000       0.81250000       0.06250000 </v>
   <v>       0.81250000       0.81250000       0.06250000 </v>
   <v>       0.31250000       0.31250000       0.56250000 </v>
   <v>       0.81250000       0.31250000       0.56250000 </v>
   <v>       0.31250000       0.81250000       0.56250000 </v>
   <v>       0.81250000       0.81250000       0.56250000 </v>
  </varray>
 </structure>
</modeling>
