<?xml version="1.0" encoding="ISO-8859-1"?>
<modeling>
 <generator>
  <i name="program" type="string">vasp </i>
  <i name="version" type="string">5.4.1  </i>
  <i name="subversion" type="string">05Feb16 (build Mar 26 2016 11:58:25) complex                          parallel </i>
  <i name="platform" type="string">IFC91_ompi </i>
  <i name="date" type="string">2017 03 12 </i>
  <i name="time" type="string">12:17:11 </i>
 </generator>
 <incar>
  <i type="string" name="PREC">accurate</i>
  <i type="int" name="IALGO">    38</i>
  <i type="logical" name="ADDGRID"> T  </i>
  <i type="int" name="NELMIN">     5</i>
  <i type="int" name="IBRION">    -1</i>
  <i name="EDIFF">      0.00000001</i>
  <i name="ENCUT">    300.00000000</i>
  <i type="logical" name="LREAL"> F  </i>
  <i type="int" name="ISMEAR">     0</i>
  <i name="SIGMA">      0.05000000</i>
  <i type="logical" name="LWAVE"> F  </i>
  <i type="logical" name="LCHARG"> F  </i>
  <v type="int" name="KPOINT_BSE">    -1     0     0     0</v>
 </incar>
 <kpoints>
  <generation param="Monkhorst-Pack">
   <v type="int" name="divisions">       2        2        2 </v>
   <v name="usershift">      0.00000000       0.00000000       0.00000000 </v>
   <v name="genvec1">      0.50000000       0.00000000       0.00000000 </v>
   <v name="genvec2">      0.00000000       0.50000000       0.00000000 </v>
   <v name="genvec3">      0.00000000       0.00000000       0.50000000 </v>
   <v name="shift">      0.50000000       0.50000000       0.50000000 </v>
  </generation>
  <varray name="kpointlist" >
   <v>       0.25000000       0.25000000       0.25000000 </v>
   <v>      -0.25000000       0.25000000       0.25000000 </v>
   <v>       0.25000000      -0.25000000       0.25000000 </v>
   <v>      -0.25000000      -0.25000000       0.25000000 </v>
  </varray>
  <varray name="weights" >
   <v>       0.25000000 </v>
   <v>       0.25000000 </v>
   <v>       0.25000000 </v>
   <v>       0.25000000 </v>
  </varray>
 </kpoints>
 <parameters>
  <separator name="general" >
   <i type="string" name="SYSTEM">unknown system</i>
   <i type="logical" name="LCOMPAT"> F  </i>
  </separator>
  <separator name="electronic" >
   <i type="string" name="PREC">accura</i>
   <i name="ENMAX">    300.00000000</i>
   <i name="ENAUG">    322.06900000</i>
   <i name="EDIFF">      0.00000001</i>
   <i type="int" name="IALGO">    38</i>
   <i type="int" name="IWAVPR">    10</i>
   <i type="int" name="NBANDS">   164</i>
   <i name="NELECT">    256.00000000</i>
   <i type="int" name="TURBO">     0</i>
   <i type="int" name="IRESTART">     0</i>
   <i type="int" name="NREBOOT">     0</i>
   <i type="int" name="NMIN">     0</i>
   <i name="EREF">      0.00000000</i>
   <separator name="electronic smearing" >
    <i type="int" name="ISMEAR">     0</i>
    <i name="SIGMA">      0.05000000</i>
    <i name="KSPACING">      0.50000000</i>
    <i type="logical" name="KGAMMA"> T  </i>
   </separator>
   <separator name="electronic projectors" >
    <i type="logical" name="LREAL"> F  </i>
    <v name="ROPT">      0.00000000</v>
    <i type="int" name="LMAXPAW">  -100</i>
    <i type="int" name="LMAXMIX">     2</i>
    <i type="logical" name="NLSPLINE"> F  </i>
   </separator>
   <separator name="electronic startup" >
    <i type="int" name="ISTART">     0</i>
    <i type="int" name="ICHARG">     2</i>
    <i type="int" name="INIWAV">     1</i>
   </separator>
   <separator name="electronic spin" >
    <i type="int" name="ISPIN">     1</i>
    <i type="logical" name="LNONCOLLINEAR"> F  </i>
    <v name="MAGMOM">      1.00000000      1.00000000      1.00000000      1.00000000      1.00000000      1.00000000      1.00000000      1.00000000      1.00000000      1.00000000      1.00000000      1.00000000      1.00000000      1.00000000      1.00000000      1.00000000      1.00000000      1.00000000      1.00000000      1.00000000
      1.00000000      1.00000000      1.00000000      1.00000000      1.00000000      1.00000000      1.00000000      1.00000000      1.00000000      1.00000000      1.00000000      1.00000000      1.00000000      1.00000000      1.00000000      1.00000000      1.00000000      1.00000000      1.00000000      1.00000000
      1.00000000      1.00000000      1.00000000      1.00000000      1.00000000      1.00000000      1.00000000      1.00000000      1.00000000      1.00000000      1.00000000      1.00000000      1.00000000      1.00000000      1.00000000      1.00000000      1.00000000      1.00000000      1.00000000      1.00000000
      1.00000000      1.00000000      1.00000000      1.00000000</v>
    <i name="NUPDOWN">     -1.00000000</i>
    <i type="logical" name="LSORBIT"> F  </i>
    <v name="SAXIS">      0.00000000      0.00000000      1.00000000</v>
    <i type="logical" name="LSPIRAL"> F  </i>
    <v name="QSPIRAL">      0.00000000      0.00000000      0.00000000</v>
    <i type="logical" name="LZEROZ"> F  </i>
   </separator>
   <separator name="electronic exchange-correlation" >
    <i type="logical" name="LASPH"> F  </i>
    <i type="logical" name="LMETAGGA"> F  </i>
   </separator>
   <separator name="electronic convergence" >
    <i type="int" name="NELM">    60</i>
    <i type="int" name="NELMDL">    -5</i>
    <i type="int" name="NELMIN">     5</i>
    <i name="ENINI">    300.00000000</i>
    <separator name="electronic convergence detail" >
     <i type="logical" name="LDIAG"> T  </i>
     <i type="logical" name="LSUBROT"> F  </i>
     <i name="WEIMIN">      0.00000000</i>
     <i name="EBREAK">      0.00000000</i>
     <i name="DEPER">      0.30000000</i>
     <i type="int" name="NRMM">     4</i>
     <i name="TIME">      0.40000000</i>
    </separator>
   </separator>
   <separator name="electronic mixer" >
    <i name="AMIX">      0.40000000</i>
    <i name="BMIX">      1.00000000</i>
    <i name="AMIN">      0.10000000</i>
    <i name="AMIX_MAG">      1.60000000</i>
    <i name="BMIX_MAG">      1.00000000</i>
    <separator name="electronic mixer details" >
     <i type="int" name="IMIX">     4</i>
     <i type="logical" name="MIXFIRST"> F  </i>
     <i type="int" name="MAXMIX">   -45</i>
     <i name="WC">    100.00000000</i>
     <i type="int" name="INIMIX">     1</i>
     <i type="int" name="MIXPRE">     1</i>
     <i type="int" name="MREMOVE">     5</i>
    </separator>
   </separator>
   <separator name="electronic dipolcorrection" >
    <i type="logical" name="LDIPOL"> F  </i>
    <i type="logical" name="LMONO"> F  </i>
    <i type="int" name="IDIPOL">     0</i>
    <i name="EPSILON">      1.00000000</i>
    <v name="DIPOL">   -100.00000000   -100.00000000   -100.00000000</v>
    <i name="EFIELD">      0.00000000</i>
   </separator>
  </separator>
  <separator name="grids" >
   <i type="int" name="NGX">    64</i>
   <i type="int" name="NGY">    64</i>
   <i type="int" name="NGZ">    64</i>
   <i type="int" name="NGXF">   128</i>
   <i type="int" name="NGYF">   128</i>
   <i type="int" name="NGZF">   128</i>
   <i type="logical" name="ADDGRID"> T  </i>
  </separator>
  <separator name="ionic" >
   <i type="int" name="NSW">     0</i>
   <i type="int" name="IBRION">    -1</i>
   <i type="int" name="ISIF">     2</i>
   <i name="PSTRESS">      0.00000000</i>
   <i name="EDIFFG">      0.00000010</i>
   <i type="int" name="NFREE">     0</i>
   <i name="POTIM">      0.50000000</i>
   <i name="SMASS">     -3.00000000</i>
   <i name="SCALEE">      1.00000000</i>
  </separator>
  <separator name="ionic md" >
   <i name="TEBEG">      0.00010000</i>
   <i name="TEEND">      0.00010000</i>
   <i type="int" name="NBLOCK">     1</i>
   <i type="int" name="KBLOCK">     1</i>
   <i type="int" name="NPACO">   256</i>
   <i name="APACO">     16.00000000</i>
  </separator>
  <separator name="symmetry" >
   <i type="int" name="ISYM">     2</i>
   <i name="SYMPREC">      0.00001000</i>
  </separator>
  <separator name="dos" >
   <i type="logical" name="LORBIT"> F  </i>
   <v name="RWIGS">     -1.00000000</v>
   <i type="int" name="NEDOS">   301</i>
   <i name="EMIN">     10.00000000</i>
   <i name="EMAX">    -10.00000000</i>
   <i name="EFERMI">      0.00000000</i>
  </separator>
  <separator name="writing" >
   <i type="int" name="NWRITE">     2</i>
   <i type="logical" name="LWAVE"> F  </i>
   <i type="logical" name="LCHARG"> F  </i>
   <i type="logical" name="LPARD"> F  </i>
   <i type="logical" name="LVTOT"> F  </i>
   <i type="logical" name="LVHAR"> F  </i>
   <i type="logical" name="LELF"> F  </i>
   <i type="logical" name="LOPTICS"> F  </i>
   <v name="STM">      0.00000000      0.00000000      0.00000000      0.00000000      0.00000000      0.00000000      0.00000000</v>
  </separator>
  <separator name="performance" >
   <i type="int" name="NPAR">     4</i>
   <i type="int" name="NSIM">     4</i>
   <i type="int" name="NBLK">    -1</i>
   <i type="logical" name="LPLANE"> T  </i>
   <i type="logical" name="LSCALAPACK"> T  </i>
   <i type="logical" name="LSCAAWARE"> F  </i>
   <i type="logical" name="LSCALU"> F  </i>
   <i type="logical" name="LASYNC"> F  </i>
   <i type="logical" name="LORBITALREAL"> F  </i>
  </separator>
  <separator name="miscellaneous" >
   <i type="int" name="IDIOT">     3</i>
   <i type="logical" name="LMUSIC"> F  </i>
   <v name="POMASS">     28.08500000</v>
   <v name="DARWINR">      0.00000000</v>
   <v name="DARWINV">      1.00000000</v>
   <i type="logical" name="LCORR"> T  </i>
  </separator>
  <i type="logical" name="GGA_COMPAT"> T  </i>
  <i type="logical" name="LBERRY"> F  </i>
  <i type="int" name="ICORELEVEL">     0</i>
  <i type="logical" name="LDAU"> F  </i>
  <i type="int" name="I_CONSTRAINED_M">     0</i>
  <separator name="electronic exchange-correlation" >
   <i type="string" name="GGA">--</i>
   <i type="int" name="VOSKOWN">     0</i>
   <i type="logical" name="LHFCALC"> F  </i>
   <i type="string" name="PRECFOCK"></i>
   <i type="logical" name="LSYMGRAD"> F  </i>
   <i type="logical" name="LHFONE"> F  </i>
   <i type="logical" name="LRHFCALC"> F  </i>
   <i type="logical" name="LTHOMAS"> F  </i>
   <i type="logical" name="LMODELHF"> F  </i>
   <i name="ENCUT4O">     -1.00000000</i>
   <i type="int" name="EXXOEP">     0</i>
   <i type="int" name="FOURORBIT">     0</i>
   <i name="AEXX">      0.00000000</i>
   <i name="HFALPHA">      0.00000000</i>
   <i name="MCALPHA">      0.00000000</i>
   <i name="ALDAX">      1.00000000</i>
   <i name="AGGAX">      1.00000000</i>
   <i name="ALDAC">      1.00000000</i>
   <i name="AGGAC">      1.00000000</i>
   <i type="int" name="NKREDX">     1</i>
   <i type="int" name="NKREDY">     1</i>
   <i type="int" name="NKREDZ">     1</i>
   <i type="logical" name="SHIFTRED"> F  </i>
   <i type="logical" name="ODDONLY"> F  </i>
   <i type="logical" name="EVENONLY"> F  </i>
   <i type="int" name="LMAXFOCK">     0</i>
   <i type="int" name="NMAXFOCKAE">     0</i>
   <i type="logical" name="LFOCKAEDFT"> F  </i>
   <i name="HFSCREEN">      0.00000000</i>
   <i name="HFSCREENC">      0.00000000</i>
   <i type="int" name="NBANDSGWLOW">     0</i>
  </separator>
  <separator name="vdW DFT" >
   <i type="logical" name="LUSE_VDW"> F  </i>
   <i name="Zab_VDW">     -0.84910000</i>
   <i name="PARAM1">      0.12340000</i>
   <i name="PARAM2">      1.00000000</i>
   <i name="PARAM3">      0.00000000</i>
  </separator>
  <separator name="model GW" >
   <i type="int" name="MODEL_GW">     0</i>
   <i name="MODEL_EPS0">     12.24990743</i>
   <i name="MODEL_ALPHA">      1.00000000</i>
  </separator>
  <separator name="linear response parameters" >
   <i type="logical" name="LEPSILON"> F  </i>
   <i type="logical" name="LRPA"> F  </i>
   <i type="logical" name="LNABLA"> F  </i>
   <i type="logical" name="LVEL"> F  </i>
   <i type="int" name="KINTER">     0</i>
   <i name="CSHIFT">      0.10000000</i>
   <i name="OMEGAMAX">     -1.00000000</i>
   <i name="DEG_THRESHOLD">      0.00200000</i>
  </separator>
  <separator name="orbital magnetization" >
   <i type="logical" name="NUCIND"> F  </i>
   <v name="MAGPOS">      0.00000000      0.00000000      0.00000000</v>
   <i type="logical" name="LNICSALL"> T  </i>
   <i type="logical" name="ORBITALMAG"> F  </i>
   <i type="logical" name="LMAGBLOCH"> F  </i>
   <i type="logical" name="LCHIMAG"> F  </i>
   <i type="logical" name="LGAUGE"> T  </i>
   <i type="int" name="MAGATOM">     0</i>
   <v name="MAGDIPOL">      0.00000000      0.00000000      0.00000000</v>
   <v name="AVECCONST">      0.00000000      0.00000000      0.00000000</v>
  </separator>
  <separator name="response functions" >
   <i type="logical" name="LADDER"> F  </i>
   <i type="logical" name="LFXC"> F  </i>
   <i type="logical" name="LHARTREE"> T  </i>
   <i type="int" name="IBSE">     0</i>
   <v type="int" name="KPOINT">    -1     0     0     0</v>
   <i type="logical" name="LTCTE"> F  </i>
   <i type="logical" name="LTETE"> F  </i>
   <i type="logical" name="LTRIPLET"> F  </i>
   <i type="logical" name="LFXCEPS"> F  </i>
   <i type="logical" name="LFXHEG"> F  </i>
   <i type="int" name="NATURALO">     0</i>
   <i type="logical" name="L2ORDER"> F  </i>
   <i type="logical" name="LUSEW"> F  </i>
   <i name="ENCUTGW">     -2.00000000</i>
   <i name="ENCUTGWSOFT">     -2.00000000</i>
   <i name="ENCUTLF">     -1.00000000</i>
   <i type="int" name="LMAXMP2">    -1</i>
   <i name="SCISSOR">      0.00000000</i>
   <i type="int" name="NOMEGA">     0</i>
   <i type="int" name="NOMEGAR">     0</i>
   <i type="int" name="NBANDSGW">    -1</i>
   <i type="int" name="NBANDSO">    -1</i>
   <i type="int" name="NBANDSV">    -1</i>
   <i type="int" name="NELM">     1</i>
   <i type="int" name="NELMHF">     1</i>
   <i type="int" name="DIM">     3</i>
   <i type="int" name="ANTIRES">     0</i>
   <i name="OMEGAMAX">    -30.00000000</i>
   <i name="OMEGAMIN">    -30.00000000</i>
   <i name="OMEGATL">   -200.00000000</i>
   <i type="int" name="OMEGAGRID">     0</i>
   <i name="CSHIFT">     -0.10000000</i>
   <i type="logical" name="SELFENERGY"> F  </i>
   <i type="logical" name="LSPECTRAL"> F  </i>
   <i type="logical" name="LSPECTRALGW"> F  </i>
   <i type="logical" name="LSINGLES"> F  </i>
   <i type="logical" name="LFERMIGW"> F  </i>
   <i type="logical" name="ODDONLYGW"> F  </i>
   <i type="logical" name="EVENONLYGW"> F  </i>
   <i type="int" name="NKREDLFX">     1</i>
   <i type="int" name="NKREDLFY">     1</i>
   <i type="int" name="NKREDLFZ">     1</i>
   <i type="int" name="MAXMEM">  1800</i>
   <i type="int" name="TELESCOPE">     0</i>
   <i type="int" name="TAUPAR">     1</i>
   <i type="int" name="OMEGAPAR">    -1</i>
   <i name="LAMBDA">      1.00000000</i>
  </separator>
  <separator name="External order field" >
   <i name="OFIELD_KAPPA">      0.00000000</i>
   <v name="OFIELD_K">      0.00000000      0.00000000      0.00000000</v>
   <i name="OFIELD_Q6_NEAR">      0.00000000</i>
   <i name="OFIELD_Q6_FAR">      0.00000000</i>
   <i name="OFIELD_A">      0.00000000</i>
  </separator>
 </parameters>
 <atominfo>
  <atoms>      64 </atoms>
  <types>       1 </types>
  <array name="atoms" >
   <dimension dim="1">ion</dimension>
   <field type="string">element</field>
   <field type="int">atomtype</field>
   <set>
    <rc><c>Si</c><c>   1</c></rc>
    <rc><c>Si</c><c>   1</c></rc>
    <rc><c>Si</c><c>   1</c></rc>
    <rc><c>Si</c><c>   1</c></rc>
    <rc><c>Si</c><c>   1</c></rc>
    <rc><c>Si</c><c>   1</c></rc>
    <rc><c>Si</c><c>   1</c></rc>
    <rc><c>Si</c><c>   1</c></rc>
    <rc><c>Si</c><c>   1</c></rc>
    <rc><c>Si</c><c>   1</c></rc>
    <rc><c>Si</c><c>   1</c></rc>
    <rc><c>Si</c><c>   1</c></rc>
    <rc><c>Si</c><c>   1</c></rc>
    <rc><c>Si</c><c>   1</c></rc>
    <rc><c>Si</c><c>   1</c></rc>
    <rc><c>Si</c><c>   1</c></rc>
    <rc><c>Si</c><c>   1</c></rc>
    <rc><c>Si</c><c>   1</c></rc>
    <rc><c>Si</c><c>   1</c></rc>
    <rc><c>Si</c><c>   1</c></rc>
    <rc><c>Si</c><c>   1</c></rc>
    <rc><c>Si</c><c>   1</c></rc>
    <rc><c>Si</c><c>   1</c></rc>
    <rc><c>Si</c><c>   1</c></rc>
    <rc><c>Si</c><c>   1</c></rc>
    <rc><c>Si</c><c>   1</c></rc>
    <rc><c>Si</c><c>   1</c></rc>
    <rc><c>Si</c><c>   1</c></rc>
    <rc><c>Si</c><c>   1</c></rc>
    <rc><c>Si</c><c>   1</c></rc>
    <rc><c>Si</c><c>   1</c></rc>
    <rc><c>Si</c><c>   1</c></rc>
    <rc><c>Si</c><c>   1</c></rc>
    <rc><c>Si</c><c>   1</c></rc>
    <rc><c>Si</c><c>   1</c></rc>
    <rc><c>Si</c><c>   1</c></rc>
    <rc><c>Si</c><c>   1</c></rc>
    <rc><c>Si</c><c>   1</c></rc>
    <rc><c>Si</c><c>   1</c></rc>
    <rc><c>Si</c><c>   1</c></rc>
    <rc><c>Si</c><c>   1</c></rc>
    <rc><c>Si</c><c>   1</c></rc>
    <rc><c>Si</c><c>   1</c></rc>
    <rc><c>Si</c><c>   1</c></rc>
    <rc><c>Si</c><c>   1</c></rc>
    <rc><c>Si</c><c>   1</c></rc>
    <rc><c>Si</c><c>   1</c></rc>
    <rc><c>Si</c><c>   1</c></rc>
    <rc><c>Si</c><c>   1</c></rc>
    <rc><c>Si</c><c>   1</c></rc>
    <rc><c>Si</c><c>   1</c></rc>
    <rc><c>Si</c><c>   1</c></rc>
    <rc><c>Si</c><c>   1</c></rc>
    <rc><c>Si</c><c>   1</c></rc>
    <rc><c>Si</c><c>   1</c></rc>
    <rc><c>Si</c><c>   1</c></rc>
    <rc><c>Si</c><c>   1</c></rc>
    <rc><c>Si</c><c>   1</c></rc>
    <rc><c>Si</c><c>   1</c></rc>
    <rc><c>Si</c><c>   1</c></rc>
    <rc><c>Si</c><c>   1</c></rc>
    <rc><c>Si</c><c>   1</c></rc>
    <rc><c>Si</c><c>   1</c></rc>
    <rc><c>Si</c><c>   1</c></rc>
   </set>
  </array>
  <array name="atomtypes" >
   <dimension dim="1">type</dimension>
   <field type="int">atomspertype</field>
   <field type="string">element</field>
   <field>mass</field>
   <field>valence</field>
   <field type="string">pseudopotential</field>
   <set>
    <rc><c>  64</c><c>Si</c><c>     28.08500000</c><c>      4.00000000</c><c>  PAW_PBE Si 05Jan2001                  </c></rc>
   </set>
  </array>
 </atominfo>
 <structure name="initialpos" >
  <crystal>
   <varray name="basis" >
    <v>      10.93252578       0.00000000       0.00000000 </v>
    <v>       0.00000000      10.93252578       0.00000000 </v>
    <v>       0.00000000       0.00000000      10.93252578 </v>
   </varray>
   <i name="volume">   1306.65679237 </i>
   <varray name="rec_basis" >
    <v>       0.09147017       0.00000000       0.00000000 </v>
    <v>       0.00000000       0.09147017       0.00000000 </v>
    <v>       0.00000000       0.00000000       0.09147017 </v>
   </varray>
  </crystal>
  <varray name="positions" >
   <v>       0.44024411       0.43750000       0.43750000 </v>
   <v>       0.93750000       0.43750000       0.43750000 </v>
   <v>       0.43750000       0.93750000       0.43750000 </v>
   <v>       0.93750000       0.93750000       0.43750000 </v>
   <v>       0.43750000       0.43750000       0.93750000 </v>
   <v>       0.93750000       0.43750000       0.93750000 </v>
   <v>       0.43750000       0.93750000       0.93750000 </v>
   <v>       0.93750000       0.93750000       0.93750000 </v>
   <v>       0.43750000       0.18750000       0.18750000 </v>
   <v>       0.93750000       0.18750000       0.18750000 </v>
   <v>       0.43750000       0.68750000       0.18750000 </v>
   <v>       0.93750000       0.68750000       0.18750000 </v>
   <v>       0.43750000       0.18750000       0.68750000 </v>
   <v>       0.93750000       0.18750000       0.68750000 </v>
   <v>       0.43750000       0.68750000       0.68750000 </v>
   <v>       0.93750000       0.68750000       0.68750000 </v>
   <v>       0.18750000       0.43750000       0.18750000 </v>
   <v>       0.68750000       0.43750000       0.18750000 </v>
   <v>       0.18750000       0.93750000       0.18750000 </v>
   <v>       0.68750000       0.93750000       0.18750000 </v>
   <v>       0.18750000       0.43750000       0.68750000 </v>
   <v>       0.68750000       0.43750000       0.68750000 </v>
   <v>       0.18750000       0.93750000       0.68750000 </v>
   <v>       0.68750000       0.93750000       0.68750000 </v>
   <v>       0.18750000       0.18750000       0.43750000 </v>
   <v>       0.68750000       0.18750000       0.43750000 </v>
   <v>       0.18750000       0.68750000       0.43750000 </v>
   <v>       0.68750000       0.68750000       0.43750000 </v>
   <v>       0.18750000       0.18750000       0.93750000 </v>
   <v>       0.68750000       0.18750000       0.93750000 </v>
   <v>       0.18750000       0.68750000       0.93750000 </v>
   <v>       0.68750000       0.68750000       0.93750000 </v>
   <v>       0.06250000       0.06250000       0.06250000 </v>
   <v>       0.56250000       0.06250000       0.06250000 </v>
   <v>       0.06250000       0.56250000       0.06250000 </v>
   <v>       0.56250000       0.56250000       0.06250000 </v>
   <v>       0.06250000       0.06250000       0.56250000 </v>
   <v>       0.56250000       0.06250000       0.56250000 </v>
   <v>       0.06250000       0.56524411       0.56250000 </v>
   <v>       0.56250000       0.56250000       0.56250000 </v>
   <v>       0.06250000       0.31250000       0.31250000 </v>
   <v>       0.56250000       0.31250000       0.31250000 </v>
   <v>       0.06250000       0.81250000       0.31250000 </v>
   <v>       0.56250000       0.81250000       0.31250000 </v>
   <v>       0.06250000       0.31250000       0.81250000 </v>
   <v>       0.56250000       0.31250000       0.81250000 </v>
   <v>       0.06250000       0.81250000       0.81250000 </v>
   <v>       0.56250000       0.81250000       0.81250000 </v>
   <v>       0.31250000       0.06250000       0.31250000 </v>
   <v>       0.81250000       0.06250000       0.31250000 </v>
   <v>       0.31250000       0.56250000       0.31250000 </v>
   <v>       0.81250000       0.56250000       0.31250000 </v>
   <v>       0.31250000       0.06250000       0.81250000 </v>
   <v>       0.81250000       0.06250000       0.81250000 </v>
   <v>       0.31250000       0.56250000       0.81250000 </v>
   <v>       0.81250000       0.56250000       0.81250000 </v>
   <v>       0.31250000       0.31250000       0.06250000 </v>
   <v>       0.81250000       0.31250000       0.06250000 </v>
   <v>       0.31250000       0.81250000       0.06250000 </v>
   <v>       0.81250000       0.81250000       0.06250000 </v>
   <v>       0.31250000       0.31250000       0.56250000 </v>
   <v>       0.81250000       0.31250000       0.56250000 </v>
   <v>       0.31250000       0.81250000       0.56250000 </v>
   <v>       0.81250000       0.81250000       0.56250000 </v>
  </varray>
 </structure>
 <calculation>
  <scstep>
   <time name="dav">    5.50    5.51</time>
   <time name="total">    5.77    5.79</time>
   <energy>
    <i name="alphaZ">    105.52440745 </i>
    <i name="ewald">  -7265.46977132 </i>
    <i name="hartreedc">   -361.71383145 </i>
    <i name="XCdc">   -597.75713504 </i>
    <i name="pawpsdc">   5639.92317535 </i>
    <i name="pawaedc">  -4513.95313856 </i>
    <i name="eentropy">     -0.00122747 </i>
    <i name="bandstr">    856.85840691 </i>
    <i name="atom">   6596.14994790 </i>
    <i name="e_fr_energy">    459.56083378 </i>
    <i name="e_wo_entrp">    459.56206125 </i>
    <i name="e_0_energy">    459.56144752 </i>
   </energy>
  </scstep>
  <scstep>
   <time name="dav">    6.32    6.32</time>
   <time name="total">    6.32    6.33</time>
   <energy>
    <i name="e_fr_energy">   -300.09273617 </i>
    <i name="e_wo_entrp">   -300.09273617 </i>
    <i name="e_0_energy">   -300.09273617 </i>
   </energy>
  </scstep>
  <scstep>
   <time name="dav">    6.37    6.37</time>
   <time name="total">    6.37    6.38</time>
   <energy>
    <i name="e_fr_energy">   -350.93743020 </i>
    <i name="e_wo_entrp">   -350.93743020 </i>
    <i name="e_0_energy">   -350.93743020 </i>
   </energy>
  </scstep>
  <scstep>
   <time name="dav">    6.36    6.37</time>
   <time name="total">    6.36    6.37</time>
   <energy>
    <i name="e_fr_energy">   -352.26924015 </i>
    <i name="e_wo_entrp">   -352.26924015 </i>
    <i name="e_0_energy">   -352.26924015 </i>
   </energy>
  </scstep>
  <scstep>
   <time name="dav">    6.27    6.28</time>
   <time name="total">    6.58    6.59</time>
   <energy>
    <i name="e_fr_energy">   -352.31301942 </i>
    <i name="e_wo_entrp">   -352.31301942 </i>
    <i name="e_0_energy">   -352.31301942 </i>
   </energy>
  </scstep>
  <scstep>
   <time name="dav">    6.20    6.20</time>
   <time name="total">    6.76    6.77</time>
   <energy>
    <i name="e_fr_energy">   -348.58454898 </i>
    <i name="e_wo_entrp">   -348.58454898 </i>
    <i name="e_0_energy">   -348.58454898 </i>
   </energy>
  </scstep>
  <scstep>
   <time name="dav">    6.06    6.07</time>
   <time name="total">    6.62    6.69</time>
   <energy>
    <i name="e_fr_energy">   -346.87193227 </i>
    <i name="e_wo_entrp">   -346.87193227 </i>
    <i name="e_0_energy">   -346.87193227 </i>
   </energy>
  </scstep>
  <scstep>
   <time name="dav">    6.29    6.29</time>
   <time name="total">    6.85    6.86</time>
   <energy>
    <i name="e_fr_energy">   -346.89815222 </i>
    <i name="e_wo_entrp">   -346.89815222 </i>
    <i name="e_0_energy">   -346.89815222 </i>
   </energy>
  </scstep>
  <scstep>
   <time name="dav">    6.43    6.43</time>
   <time name="total">    6.99    7.00</time>
   <energy>
    <i name="e_fr_energy">   -346.90489968 </i>
    <i name="e_wo_entrp">   -346.90489968 </i>
    <i name="e_0_energy">   -346.90489968 </i>
   </energy>
  </scstep>
  <scstep>
   <time name="dav">    6.00    6.00</time>
   <time name="total">    6.56    6.60</time>
   <energy>
    <i name="e_fr_energy">   -346.90694965 </i>
    <i name="e_wo_entrp">   -346.90694965 </i>
    <i name="e_0_energy">   -346.90694965 </i>
   </energy>
  </scstep>
  <scstep>
   <time name="dav">    6.33    6.34</time>
   <time name="total">    6.89    6.90</time>
   <energy>
    <i name="e_fr_energy">   -346.90692441 </i>
    <i name="e_wo_entrp">   -346.90692441 </i>
    <i name="e_0_energy">   -346.90692441 </i>
   </energy>
  </scstep>
  <scstep>
   <time name="dav">    6.15    6.16</time>
   <time name="total">    6.71    6.73</time>
   <energy>
    <i name="e_fr_energy">   -346.90693935 </i>
    <i name="e_wo_entrp">   -346.90693935 </i>
    <i name="e_0_energy">   -346.90693935 </i>
   </energy>
  </scstep>
  <scstep>
   <time name="dav">    6.21    6.21</time>
   <time name="total">    6.77    6.78</time>
   <energy>
    <i name="e_fr_energy">   -346.90693981 </i>
    <i name="e_wo_entrp">   -346.90693981 </i>
    <i name="e_0_energy">   -346.90693981 </i>
   </energy>
  </scstep>
  <scstep>
   <time name="dav">    6.38    6.39</time>
   <time name="total">    6.94    7.03</time>
   <energy>
    <i name="e_fr_energy">   -346.90694045 </i>
    <i name="e_wo_entrp">   -346.90694045 </i>
    <i name="e_0_energy">   -346.90694045 </i>
   </energy>
  </scstep>
  <scstep>
   <time name="dav">    5.27    5.28</time>
   <time name="total">    5.83    5.87</time>
   <energy>
    <i name="e_fr_energy">   -346.90694020 </i>
    <i name="e_wo_entrp">   -346.90694020 </i>
    <i name="e_0_energy">   -346.90694020 </i>
   </energy>
  </scstep>
  <scstep>
   <time name="dav">    4.30    4.31</time>
   <time name="total">    4.86    4.87</time>
   <energy>
    <i name="e_fr_energy">   -346.90694028 </i>
    <i name="e_wo_entrp">   -346.90694028 </i>
    <i name="e_0_energy">   -346.90694028 </i>
   </energy>
  </scstep>
  <scstep>
   <time name="dav">    4.25    4.25</time>
   <time name="total">    4.81    4.82</time>
   <energy>
    <i name="e_fr_energy">   -346.90694027 </i>
    <i name="e_wo_entrp">   -346.90694027 </i>
    <i name="e_0_energy">   -346.90694027 </i>
   </energy>
  </scstep>
  <scstep>
   <time name="dav">    4.26    4.26</time>
   <time name="total">    4.82    4.83</time>
   <energy>
    <i name="e_fr_energy">   -346.90694028 </i>
    <i name="e_wo_entrp">   -346.90694028 </i>
    <i name="e_0_energy">   -346.90694028 </i>
   </energy>
  </scstep>
  <scstep>
   <time name="dav">    4.22    4.23</time>
   <time name="total">    4.48    4.49</time>
   <energy>
    <i name="alphaZ">    105.52440745 </i>
    <i name="ewald">  -7265.46977132 </i>
    <i name="hartreedc">   -485.14469561 </i>
    <i name="XCdc">   -577.61228902 </i>
    <i name="pawpsdc">  27883.43857261 </i>
    <i name="pawaedc"> -26764.15650108 </i>
    <i name="eentropy">      0.00000000 </i>
    <i name="bandstr">    160.36338878 </i>
    <i name="atom">   6596.14994790 </i>
    <i name="e_fr_energy">   -346.90694028 </i>
    <i name="e_wo_entrp">   -346.90694028 </i>
    <i name="e_0_energy">   -346.90694028 </i>
   </energy>
  </scstep>
  <structure>
   <crystal>
    <varray name="basis" >
     <v>      10.93252578       0.00000000       0.00000000 </v>
     <v>       0.00000000      10.93252578       0.00000000 </v>
     <v>       0.00000000       0.00000000      10.93252578 </v>
    </varray>
    <i name="volume">   1306.65679237 </i>
    <varray name="rec_basis" >
     <v>       0.09147017       0.00000000       0.00000000 </v>
     <v>       0.00000000       0.09147017       0.00000000 </v>
     <v>       0.00000000       0.00000000       0.09147017 </v>
    </varray>
   </crystal>
   <varray name="positions" >
    <v>       0.44024411       0.43750000       0.43750000 </v>
    <v>       0.93750000       0.43750000       0.43750000 </v>
    <v>       0.43750000       0.93750000       0.43750000 </v>
    <v>       0.93750000       0.93750000       0.43750000 </v>
    <v>       0.43750000       0.43750000       0.93750000 </v>
    <v>       0.93750000       0.43750000       0.93750000 </v>
    <v>       0.43750000       0.93750000       0.93750000 </v>
    <v>       0.93750000       0.93750000       0.93750000 </v>
    <v>       0.43750000       0.18750000       0.18750000 </v>
    <v>       0.93750000       0.18750000       0.18750000 </v>
    <v>       0.43750000       0.68750000       0.18750000 </v>
    <v>       0.93750000       0.68750000       0.18750000 </v>
    <v>       0.43750000       0.18750000       0.68750000 </v>
    <v>       0.93750000       0.18750000       0.68750000 </v>
    <v>       0.43750000       0.68750000       0.68750000 </v>
    <v>       0.93750000       0.68750000       0.68750000 </v>
    <v>       0.18750000       0.43750000       0.18750000 </v>
    <v>       0.68750000       0.43750000       0.18750000 </v>
    <v>       0.18750000       0.93750000       0.18750000 </v>
    <v>       0.68750000       0.93750000       0.18750000 </v>
    <v>       0.18750000       0.43750000       0.68750000 </v>
    <v>       0.68750000       0.43750000       0.68750000 </v>
    <v>       0.18750000       0.93750000       0.68750000 </v>
    <v>       0.68750000       0.93750000       0.68750000 </v>
    <v>       0.18750000       0.18750000       0.43750000 </v>
    <v>       0.68750000       0.18750000       0.43750000 </v>
    <v>       0.18750000       0.68750000       0.43750000 </v>
    <v>       0.68750000       0.68750000       0.43750000 </v>
    <v>       0.18750000       0.18750000       0.93750000 </v>
    <v>       0.68750000       0.18750000       0.93750000 </v>
    <v>       0.18750000       0.68750000       0.93750000 </v>
    <v>       0.68750000       0.68750000       0.93750000 </v>
    <v>       0.06250000       0.06250000       0.06250000 </v>
    <v>       0.56250000       0.06250000       0.06250000 </v>
    <v>       0.06250000       0.56250000       0.06250000 </v>
    <v>       0.56250000       0.56250000       0.06250000 </v>
    <v>       0.06250000       0.06250000       0.56250000 </v>
    <v>       0.56250000       0.06250000       0.56250000 </v>
    <v>       0.06250000       0.56524411       0.56250000 </v>
    <v>       0.56250000       0.56250000       0.56250000 </v>
    <v>       0.06250000       0.31250000       0.31250000 </v>
    <v>       0.56250000       0.31250000       0.31250000 </v>
    <v>       0.06250000       0.81250000       0.31250000 </v>
    <v>       0.56250000       0.81250000       0.31250000 </v>
    <v>       0.06250000       0.31250000       0.81250000 </v>
    <v>       0.56250000       0.31250000       0.81250000 </v>
    <v>       0.06250000       0.81250000       0.81250000 </v>
    <v>       0.56250000       0.81250000       0.81250000 </v>
    <v>       0.31250000       0.06250000       0.31250000 </v>
    <v>       0.81250000       0.06250000       0.31250000 </v>
    <v>       0.31250000       0.56250000       0.31250000 </v>
    <v>       0.81250000       0.56250000       0.31250000 </v>
    <v>       0.31250000       0.06250000       0.81250000 </v>
    <v>       0.81250000       0.06250000       0.81250000 </v>
    <v>       0.31250000       0.56250000       0.81250000 </v>
    <v>       0.81250000       0.56250000       0.81250000 </v>
    <v>       0.31250000       0.31250000       0.06250000 </v>
    <v>       0.81250000       0.31250000       0.06250000 </v>
    <v>       0.31250000       0.81250000       0.06250000 </v>
    <v>       0.81250000       0.81250000       0.06250000 </v>
    <v>       0.31250000       0.31250000       0.56250000 </v>
    <v>       0.81250000       0.31250000       0.56250000 </v>
    <v>       0.31250000       0.81250000       0.56250000 </v>
    <v>       0.81250000       0.81250000       0.56250000 </v>
   </varray>
  </structure>
  <varray name="forces" >
   <v>      -0.38624144      -0.00141704       0.00124587 </v>
   <v>       0.06150863       0.09307676       0.06094873 </v>
   <v>       0.00195331       0.00066310       0.00070451 </v>
   <v>       0.00072549      -0.00027726       0.00090816 </v>
   <v>       0.00199631       0.00613721       0.00067670 </v>
   <v>       0.00107084      -0.00143314       0.00088831 </v>
   <v>      -0.01080187      -0.00053688       0.00074709 </v>
   <v>       0.00128313       0.00066238       0.00063872 </v>
   <v>      -0.01363616       0.00223651       0.00352486 </v>
   <v>      -0.00067937       0.00084422       0.00082832 </v>
   <v>      -0.01346670       0.00887397      -0.00196910 </v>
   <v>      -0.00121124      -0.00124074       0.00069098 </v>
   <v>      -0.01337862      -0.00204015       0.00332236 </v>
   <v>      -0.00090883      -0.00050957       0.00114314 </v>
   <v>      -0.01380668      -0.00424690      -0.00155846 </v>
   <v>      -0.06613631       0.09559041       0.06587760 </v>
   <v>       0.00439811      -0.00410128       0.00467701 </v>
   <v>       0.00512176       0.00336175      -0.00636671 </v>
   <v>       0.00031077       0.00043139      -0.00250073 </v>
   <v>       0.00027460      -0.00076512       0.00110135 </v>
   <v>      -0.05530913       0.09575847      -0.06652684 </v>
   <v>       0.00490986       0.00133556       0.00444164 </v>
   <v>       0.00011311      -0.00004830       0.00095746 </v>
   <v>       0.00038095       0.00089200      -0.00255225 </v>
   <v>       0.00655805       0.00528213      -0.00358014 </v>
   <v>       0.00640631      -0.00506796      -0.00342248 </v>
   <v>       0.07177531       0.09023864      -0.06345255 </v>
   <v>       0.00672727       0.00421619       0.00156069 </v>
   <v>       0.00167305      -0.00124445      -0.00083287 </v>
   <v>       0.00177615       0.00131055      -0.00098446 </v>
   <v>       0.00222895       0.00038613      -0.00069493 </v>
   <v>       0.00170629       0.00436842      -0.00045438 </v>
   <v>      -0.00053577       0.00057951       0.00075383 </v>
   <v>       0.00621248       0.00126327       0.00068464 </v>
   <v>       0.00061802       0.00197151       0.00060067 </v>
   <v>      -0.00147489      -0.01034260       0.00092024 </v>
   <v>       0.00061740       0.00115069       0.00065040 </v>
   <v>      -0.00147772       0.00075097       0.00121215 </v>
   <v>      -0.00027623      -0.38626322       0.00094586 </v>
   <v>       0.09579932       0.06743072       0.06611457 </v>
   <v>       0.00239744       0.00473505       0.00465004 </v>
   <v>       0.09603253      -0.06510240      -0.06797383 </v>
   <v>       0.00338818       0.00519945      -0.00634540 </v>
   <v>      -0.00124342       0.00009659       0.00063509 </v>
   <v>      -0.00205964       0.00499239      -0.00616503 </v>
   <v>      -0.00170551      -0.00019389       0.00093756 </v>
   <v>      -0.00330271       0.00504565       0.00493453 </v>
   <v>       0.00598185       0.00033771      -0.00253402 </v>
   <v>      -0.00165913      -0.00091200       0.00147271 </v>
   <v>       0.00042927      -0.00064024       0.00047181 </v>
   <v>       0.09029189      -0.07383513       0.06370997 </v>
   <v>      -0.00294260      -0.01367960      -0.00175776 </v>
   <v>       0.00636704      -0.00067563       0.00090976 </v>
   <v>      -0.00030897      -0.00077035       0.00051980 </v>
   <v>       0.00123528      -0.01402133       0.00355253 </v>
   <v>       0.00343445      -0.01359345      -0.00213331 </v>
   <v>       0.00042939       0.00226378      -0.00111900 </v>
   <v>      -0.00119897       0.00172481      -0.00040959 </v>
   <v>       0.00429003       0.00169542      -0.00090549 </v>
   <v>       0.00131171       0.00176629      -0.00051474 </v>
   <v>       0.08751037       0.06660442      -0.06362844 </v>
   <v>       0.00528389       0.00655133       0.00177173 </v>
   <v>       0.00426048       0.00669172      -0.00400956 </v>
   <v>      -0.00502740       0.00644156       0.00206070 </v>
  </varray>
  <varray name="stress" >
   <v>       0.00161829       0.00003825      -0.33475925 </v>
   <v>       0.00003828       0.00159508       0.33494545 </v>
   <v>      -0.33475924       0.33494548       0.02080833 </v>
  </varray>
  <energy>
   <i name="e_fr_energy">   -346.90694028 </i>
   <i name="e_wo_entrp">   -346.90694028 </i>
   <i name="e_0_energy">      0.00000000 </i>
  </energy>
  <time name="totalsc">  128.98  129.42</time>
  <eigenvalues>
   <array>
    <dimension dim="1">band</dimension>
    <dimension dim="2">kpoint</dimension>
    <dimension dim="3">spin</dimension>
    <field>eigene</field>
    <field>occ</field>
    <set>
     <set comment="spin 1">
      <set comment="kpoint 1">
       <r>   -5.9932    1.0000 </r>
       <r>   -5.4687    1.0000 </r>
       <r>   -5.4647    1.0000 </r>
       <r>   -5.4609    1.0000 </r>
       <r>   -4.9694    1.0000 </r>
       <r>   -4.9654    1.0000 </r>
       <r>   -4.9617    1.0000 </r>
       <r>   -4.5323    1.0000 </r>
       <r>   -4.4364    1.0000 </r>
       <r>   -4.4324    1.0000 </r>
       <r>   -4.4285    1.0000 </r>
       <r>   -4.0255    1.0000 </r>
       <r>   -4.0190    1.0000 </r>
       <r>   -4.0164    1.0000 </r>
       <r>   -4.0144    1.0000 </r>
       <r>   -4.0139    1.0000 </r>
       <r>   -4.0094    1.0000 </r>
       <r>   -3.8283    1.0000 </r>
       <r>   -3.8244    1.0000 </r>
       <r>   -3.8203    1.0000 </r>
       <r>   -3.3333    1.0000 </r>
       <r>   -3.3277    1.0000 </r>
       <r>   -3.3241    1.0000 </r>
       <r>   -2.9626    1.0000 </r>
       <r>   -2.9591    1.0000 </r>
       <r>   -2.9558    1.0000 </r>
       <r>   -2.8001    1.0000 </r>
       <r>   -2.7933    1.0000 </r>
       <r>   -2.7908    1.0000 </r>
       <r>   -2.7892    1.0000 </r>
       <r>   -2.7886    1.0000 </r>
       <r>   -2.7830    1.0000 </r>
       <r>   -1.2585    1.0000 </r>
       <r>   -1.2520    1.0000 </r>
       <r>   -1.2487    1.0000 </r>
       <r>   -1.2473    1.0000 </r>
       <r>   -1.2458    1.0000 </r>
       <r>   -1.2412    1.0000 </r>
       <r>   -1.1545    1.0000 </r>
       <r>   -1.1511    1.0000 </r>
       <r>   -1.1475    1.0000 </r>
       <r>   -1.0376    1.0000 </r>
       <r>   -1.0326    1.0000 </r>
       <r>   -1.0278    1.0000 </r>
       <r>   -0.9541    1.0000 </r>
       <r>   -0.9459    1.0000 </r>
       <r>   -0.9401    1.0000 </r>
       <r>   -0.2446    1.0000 </r>
       <r>   -0.1689    1.0000 </r>
       <r>   -0.1644    1.0000 </r>
       <r>   -0.1602    1.0000 </r>
       <r>   -0.1577    1.0000 </r>
       <r>   -0.1566    1.0000 </r>
       <r>   -0.1529    1.0000 </r>
       <r>    0.7086    1.0000 </r>
       <r>    0.7150    1.0000 </r>
       <r>    0.7192    1.0000 </r>
       <r>    1.0428    1.0000 </r>
       <r>    1.0473    1.0000 </r>
       <r>    1.0512    1.0000 </r>
       <r>    1.6527    1.0000 </r>
       <r>    1.6543    1.0000 </r>
       <r>    1.6559    1.0000 </r>
       <r>    1.6572    1.0000 </r>
       <r>    1.6597    1.0000 </r>
       <r>    1.6620    1.0000 </r>
       <r>    1.7126    1.0000 </r>
       <r>    1.7165    1.0000 </r>
       <r>    1.7190    1.0000 </r>
       <r>    2.2660    1.0000 </r>
       <r>    2.2677    1.0000 </r>
       <r>    2.2693    1.0000 </r>
       <r>    2.3653    1.0000 </r>
       <r>    2.3673    1.0000 </r>
       <r>    2.3693    1.0000 </r>
       <r>    2.3717    1.0000 </r>
       <r>    2.3745    1.0000 </r>
       <r>    2.3769    1.0000 </r>
       <r>    2.4209    1.0000 </r>
       <r>    2.4247    1.0000 </r>
       <r>    2.4293    1.0000 </r>
       <r>    2.7287    1.0000 </r>
       <r>    2.7321    1.0000 </r>
       <r>    2.7352    1.0000 </r>
       <r>    2.7359    1.0000 </r>
       <r>    2.7371    1.0000 </r>
       <r>    2.7406    1.0000 </r>
       <r>    2.9963    1.0000 </r>
       <r>    2.9995    1.0000 </r>
       <r>    3.0014    1.0000 </r>
       <r>    3.0097    1.0000 </r>
       <r>    3.0141    1.0000 </r>
       <r>    3.0173    1.0000 </r>
       <r>    3.3585    1.0000 </r>
       <r>    3.3619    1.0000 </r>
       <r>    3.3652    1.0000 </r>
       <r>    3.3821    1.0000 </r>
       <r>    3.3845    1.0000 </r>
       <r>    3.3867    1.0000 </r>
       <r>    3.4631    1.0000 </r>
       <r>    3.4675    1.0000 </r>
       <r>    3.4693    1.0000 </r>
       <r>    3.7330    1.0000 </r>
       <r>    3.7391    1.0000 </r>
       <r>    3.7408    1.0000 </r>
       <r>    3.7420    1.0000 </r>
       <r>    3.7438    1.0000 </r>
       <r>    3.7486    1.0000 </r>
       <r>    3.7766    1.0000 </r>
       <r>    3.7819    1.0000 </r>
       <r>    3.7838    1.0000 </r>
       <r>    4.0406    1.0000 </r>
       <r>    4.0949    1.0000 </r>
       <r>    4.0978    1.0000 </r>
       <r>    4.1011    1.0000 </r>
       <r>    4.3369    1.0000 </r>
       <r>    4.3416    1.0000 </r>
       <r>    4.3445    1.0000 </r>
       <r>    4.4003    1.0000 </r>
       <r>    4.4060    1.0000 </r>
       <r>    4.4115    1.0000 </r>
       <r>    4.5588    1.0000 </r>
       <r>    4.5670    1.0000 </r>
       <r>    4.8646    1.0000 </r>
       <r>    4.8709    1.0000 </r>
       <r>    4.8746    1.0000 </r>
       <r>    5.3451    1.0000 </r>
       <r>    5.3543    1.0000 </r>
       <r>    6.5598    0.0000 </r>
       <r>    6.5634    0.0000 </r>
       <r>    6.5669    0.0000 </r>
       <r>    6.9990    0.0000 </r>
       <r>    7.0060    0.0000 </r>
       <r>    7.0083    0.0000 </r>
       <r>    7.2337    0.0000 </r>
       <r>    7.4858    0.0000 </r>
       <r>    7.4919    0.0000 </r>
       <r>    7.4944    0.0000 </r>
       <r>    7.6158    0.0000 </r>
       <r>    7.6196    0.0000 </r>
       <r>    7.6232    0.0000 </r>
       <r>    7.7759    0.0000 </r>
       <r>    7.7799    0.0000 </r>
       <r>    7.7830    0.0000 </r>
       <r>    7.7978    0.0000 </r>
       <r>    7.8013    0.0000 </r>
       <r>    7.8052    0.0000 </r>
       <r>    8.0229    0.0000 </r>
       <r>    8.0272    0.0000 </r>
       <r>    8.0309    0.0000 </r>
       <r>    8.0319    0.0000 </r>
       <r>    8.0337    0.0000 </r>
       <r>    8.0364    0.0000 </r>
       <r>    8.0814    0.0000 </r>
       <r>    8.2913    0.0000 </r>
       <r>    8.2956    0.0000 </r>
       <r>    8.2980    0.0000 </r>
       <r>    8.4922    0.0000 </r>
       <r>    8.5003    0.0000 </r>
       <r>    8.5027    0.0000 </r>
       <r>    8.5049    0.0000 </r>
       <r>    8.5098    0.0000 </r>
       <r>    8.5197    0.0000 </r>
       <r>    8.5477    0.0000 </r>
      </set>
      <set comment="kpoint 2">
       <r>   -5.9931    1.0000 </r>
       <r>   -5.4677    1.0000 </r>
       <r>   -5.4650    1.0000 </r>
       <r>   -5.4620    1.0000 </r>
       <r>   -4.9681    1.0000 </r>
       <r>   -4.9657    1.0000 </r>
       <r>   -4.9626    1.0000 </r>
       <r>   -4.5312    1.0000 </r>
       <r>   -4.4349    1.0000 </r>
       <r>   -4.4325    1.0000 </r>
       <r>   -4.4290    1.0000 </r>
       <r>   -4.0240    1.0000 </r>
       <r>   -4.0213    1.0000 </r>
       <r>   -4.0160    1.0000 </r>
       <r>   -4.0157    1.0000 </r>
       <r>   -4.0135    1.0000 </r>
       <r>   -4.0110    1.0000 </r>
       <r>   -3.8289    1.0000 </r>
       <r>   -3.8244    1.0000 </r>
       <r>   -3.8216    1.0000 </r>
       <r>   -3.3290    1.0000 </r>
       <r>   -3.3281    1.0000 </r>
       <r>   -3.3227    1.0000 </r>
       <r>   -2.9632    1.0000 </r>
       <r>   -2.9592    1.0000 </r>
       <r>   -2.9562    1.0000 </r>
       <r>   -2.7988    1.0000 </r>
       <r>   -2.7950    1.0000 </r>
       <r>   -2.7907    1.0000 </r>
       <r>   -2.7902    1.0000 </r>
       <r>   -2.7871    1.0000 </r>
       <r>   -2.7849    1.0000 </r>
       <r>   -1.2564    1.0000 </r>
       <r>   -1.2513    1.0000 </r>
       <r>   -1.2484    1.0000 </r>
       <r>   -1.2481    1.0000 </r>
       <r>   -1.2438    1.0000 </r>
       <r>   -1.2425    1.0000 </r>
       <r>   -1.1534    1.0000 </r>
       <r>   -1.1508    1.0000 </r>
       <r>   -1.1468    1.0000 </r>
       <r>   -1.0335    1.0000 </r>
       <r>   -1.0324    1.0000 </r>
       <r>   -1.0270    1.0000 </r>
       <r>   -0.9583    1.0000 </r>
       <r>   -0.9483    1.0000 </r>
       <r>   -0.9456    1.0000 </r>
       <r>   -0.2481    1.0000 </r>
       <r>   -0.1640    1.0000 </r>
       <r>   -0.1614    1.0000 </r>
       <r>   -0.1600    1.0000 </r>
       <r>   -0.1592    1.0000 </r>
       <r>   -0.1552    1.0000 </r>
       <r>   -0.1523    1.0000 </r>
       <r>    0.7054    1.0000 </r>
       <r>    0.7138    1.0000 </r>
       <r>    0.7167    1.0000 </r>
       <r>    1.0442    1.0000 </r>
       <r>    1.0471    1.0000 </r>
       <r>    1.0501    1.0000 </r>
       <r>    1.6525    1.0000 </r>
       <r>    1.6550    1.0000 </r>
       <r>    1.6563    1.0000 </r>
       <r>    1.6579    1.0000 </r>
       <r>    1.6597    1.0000 </r>
       <r>    1.6608    1.0000 </r>
       <r>    1.7149    1.0000 </r>
       <r>    1.7170    1.0000 </r>
       <r>    1.7197    1.0000 </r>
       <r>    2.2644    1.0000 </r>
       <r>    2.2655    1.0000 </r>
       <r>    2.2677    1.0000 </r>
       <r>    2.3670    1.0000 </r>
       <r>    2.3685    1.0000 </r>
       <r>    2.3722    1.0000 </r>
       <r>    2.3729    1.0000 </r>
       <r>    2.3754    1.0000 </r>
       <r>    2.3764    1.0000 </r>
       <r>    2.4236    1.0000 </r>
       <r>    2.4276    1.0000 </r>
       <r>    2.4304    1.0000 </r>
       <r>    2.7307    1.0000 </r>
       <r>    2.7326    1.0000 </r>
       <r>    2.7347    1.0000 </r>
       <r>    2.7355    1.0000 </r>
       <r>    2.7359    1.0000 </r>
       <r>    2.7393    1.0000 </r>
       <r>    2.9984    1.0000 </r>
       <r>    3.0008    1.0000 </r>
       <r>    3.0014    1.0000 </r>
       <r>    3.0125    1.0000 </r>
       <r>    3.0146    1.0000 </r>
       <r>    3.0175    1.0000 </r>
       <r>    3.3566    1.0000 </r>
       <r>    3.3602    1.0000 </r>
       <r>    3.3629    1.0000 </r>
       <r>    3.3784    1.0000 </r>
       <r>    3.3817    1.0000 </r>
       <r>    3.3846    1.0000 </r>
       <r>    3.4657    1.0000 </r>
       <r>    3.4679    1.0000 </r>
       <r>    3.4697    1.0000 </r>
       <r>    3.7304    1.0000 </r>
       <r>    3.7357    1.0000 </r>
       <r>    3.7394    1.0000 </r>
       <r>    3.7415    1.0000 </r>
       <r>    3.7419    1.0000 </r>
       <r>    3.7428    1.0000 </r>
       <r>    3.7797    1.0000 </r>
       <r>    3.7821    1.0000 </r>
       <r>    3.7844    1.0000 </r>
       <r>    4.0366    1.0000 </r>
       <r>    4.0981    1.0000 </r>
       <r>    4.1008    1.0000 </r>
       <r>    4.1017    1.0000 </r>
       <r>    4.3405    1.0000 </r>
       <r>    4.3429    1.0000 </r>
       <r>    4.3453    1.0000 </r>
       <r>    4.3948    1.0000 </r>
       <r>    4.4036    1.0000 </r>
       <r>    4.4053    1.0000 </r>
       <r>    4.5617    1.0000 </r>
       <r>    4.5665    1.0000 </r>
       <r>    4.8694    1.0000 </r>
       <r>    4.8725    1.0000 </r>
       <r>    4.8761    1.0000 </r>
       <r>    5.3493    1.0000 </r>
       <r>    5.3547    1.0000 </r>
       <r>    6.5618    0.0000 </r>
       <r>    6.5657    0.0000 </r>
       <r>    6.5674    0.0000 </r>
       <r>    7.0014    0.0000 </r>
       <r>    7.0048    0.0000 </r>
       <r>    7.0094    0.0000 </r>
       <r>    7.2352    0.0000 </r>
       <r>    7.4888    0.0000 </r>
       <r>    7.4922    0.0000 </r>
       <r>    7.4959    0.0000 </r>
       <r>    7.6154    0.0000 </r>
       <r>    7.6175    0.0000 </r>
       <r>    7.6218    0.0000 </r>
       <r>    7.7776    0.0000 </r>
       <r>    7.7789    0.0000 </r>
       <r>    7.7839    0.0000 </r>
       <r>    7.7992    0.0000 </r>
       <r>    7.8027    0.0000 </r>
       <r>    7.8042    0.0000 </r>
       <r>    8.0232    0.0000 </r>
       <r>    8.0251    0.0000 </r>
       <r>    8.0287    0.0000 </r>
       <r>    8.0310    0.0000 </r>
       <r>    8.0318    0.0000 </r>
       <r>    8.0330    0.0000 </r>
       <r>    8.0836    0.0000 </r>
       <r>    8.2929    0.0000 </r>
       <r>    8.2948    0.0000 </r>
       <r>    8.2979    0.0000 </r>
       <r>    8.4946    0.0000 </r>
       <r>    8.4978    0.0000 </r>
       <r>    8.5031    0.0000 </r>
       <r>    8.5038    0.0000 </r>
       <r>    8.5091    0.0000 </r>
       <r>    8.5207    0.0000 </r>
       <r>    8.5380    0.0000 </r>
      </set>
      <set comment="kpoint 3">
       <r>   -5.9932    1.0000 </r>
       <r>   -5.4672    1.0000 </r>
       <r>   -5.4662    1.0000 </r>
       <r>   -5.4606    1.0000 </r>
       <r>   -4.9680    1.0000 </r>
       <r>   -4.9672    1.0000 </r>
       <r>   -4.9614    1.0000 </r>
       <r>   -4.5333    1.0000 </r>
       <r>   -4.4352    1.0000 </r>
       <r>   -4.4343    1.0000 </r>
       <r>   -4.4287    1.0000 </r>
       <r>   -4.0204    1.0000 </r>
       <r>   -4.0197    1.0000 </r>
       <r>   -4.0189    1.0000 </r>
       <r>   -4.0172    1.0000 </r>
       <r>   -4.0105    1.0000 </r>
       <r>   -4.0093    1.0000 </r>
       <r>   -3.8270    1.0000 </r>
       <r>   -3.8243    1.0000 </r>
       <r>   -3.8197    1.0000 </r>
       <r>   -3.3330    1.0000 </r>
       <r>   -3.3317    1.0000 </r>
       <r>   -3.3257    1.0000 </r>
       <r>   -2.9620    1.0000 </r>
       <r>   -2.9590    1.0000 </r>
       <r>   -2.9554    1.0000 </r>
       <r>   -2.7955    1.0000 </r>
       <r>   -2.7943    1.0000 </r>
       <r>   -2.7928    1.0000 </r>
       <r>   -2.7918    1.0000 </r>
       <r>   -2.7862    1.0000 </r>
       <r>   -2.7827    1.0000 </r>
       <r>   -1.2556    1.0000 </r>
       <r>   -1.2534    1.0000 </r>
       <r>   -1.2514    1.0000 </r>
       <r>   -1.2498    1.0000 </r>
       <r>   -1.2448    1.0000 </r>
       <r>   -1.2410    1.0000 </r>
       <r>   -1.1553    1.0000 </r>
       <r>   -1.1515    1.0000 </r>
       <r>   -1.1490    1.0000 </r>
       <r>   -1.0381    1.0000 </r>
       <r>   -1.0327    1.0000 </r>
       <r>   -1.0318    1.0000 </r>
       <r>   -0.9477    1.0000 </r>
       <r>   -0.9429    1.0000 </r>
       <r>   -0.9373    1.0000 </r>
       <r>   -0.2411    1.0000 </r>
       <r>   -0.1685    1.0000 </r>
       <r>   -0.1653    1.0000 </r>
       <r>   -0.1641    1.0000 </r>
       <r>   -0.1613    1.0000 </r>
       <r>   -0.1557    1.0000 </r>
       <r>   -0.1543    1.0000 </r>
       <r>    0.7121    1.0000 </r>
       <r>    0.7175    1.0000 </r>
       <r>    0.7201    1.0000 </r>
       <r>    1.0444    1.0000 </r>
       <r>    1.0473    1.0000 </r>
       <r>    1.0494    1.0000 </r>
       <r>    1.6533    1.0000 </r>
       <r>    1.6544    1.0000 </r>
       <r>    1.6563    1.0000 </r>
       <r>    1.6574    1.0000 </r>
       <r>    1.6587    1.0000 </r>
       <r>    1.6610    1.0000 </r>
       <r>    1.7129    1.0000 </r>
       <r>    1.7142    1.0000 </r>
       <r>    1.7179    1.0000 </r>
       <r>    2.2677    1.0000 </r>
       <r>    2.2699    1.0000 </r>
       <r>    2.2710    1.0000 </r>
       <r>    2.3635    1.0000 </r>
       <r>    2.3660    1.0000 </r>
       <r>    2.3694    1.0000 </r>
       <r>    2.3717    1.0000 </r>
       <r>    2.3728    1.0000 </r>
       <r>    2.3740    1.0000 </r>
       <r>    2.4202    1.0000 </r>
       <r>    2.4228    1.0000 </r>
       <r>    2.4259    1.0000 </r>
       <r>    2.7300    1.0000 </r>
       <r>    2.7322    1.0000 </r>
       <r>    2.7335    1.0000 </r>
       <r>    2.7352    1.0000 </r>
       <r>    2.7391    1.0000 </r>
       <r>    2.7406    1.0000 </r>
       <r>    2.9966    1.0000 </r>
       <r>    2.9976    1.0000 </r>
       <r>    3.0001    1.0000 </r>
       <r>    3.0100    1.0000 </r>
       <r>    3.0122    1.0000 </r>
       <r>    3.0148    1.0000 </r>
       <r>    3.3611    1.0000 </r>
       <r>    3.3626    1.0000 </r>
       <r>    3.3675    1.0000 </r>
       <r>    3.3841    1.0000 </r>
       <r>    3.3874    1.0000 </r>
       <r>    3.3909    1.0000 </r>
       <r>    3.4622    1.0000 </r>
       <r>    3.4660    1.0000 </r>
       <r>    3.4685    1.0000 </r>
       <r>    3.7389    1.0000 </r>
       <r>    3.7402    1.0000 </r>
       <r>    3.7420    1.0000 </r>
       <r>    3.7438    1.0000 </r>
       <r>    3.7460    1.0000 </r>
       <r>    3.7522    1.0000 </r>
       <r>    3.7756    1.0000 </r>
       <r>    3.7799    1.0000 </r>
       <r>    3.7831    1.0000 </r>
       <r>    4.0441    1.0000 </r>
       <r>    4.0941    1.0000 </r>
       <r>    4.0950    1.0000 </r>
       <r>    4.0983    1.0000 </r>
       <r>    4.3354    1.0000 </r>
       <r>    4.3399    1.0000 </r>
       <r>    4.3420    1.0000 </r>
       <r>    4.4061    1.0000 </r>
       <r>    4.4110    1.0000 </r>
       <r>    4.4143    1.0000 </r>
       <r>    4.5594    1.0000 </r>
       <r>    4.5641    1.0000 </r>
       <r>    4.8625    1.0000 </r>
       <r>    4.8684    1.0000 </r>
       <r>    4.8714    1.0000 </r>
       <r>    5.3448    1.0000 </r>
       <r>    5.3501    1.0000 </r>
       <r>    6.5592    0.0000 </r>
       <r>    6.5611    0.0000 </r>
       <r>    6.5650    0.0000 </r>
       <r>    6.9988    0.0000 </r>
       <r>    7.0045    0.0000 </r>
       <r>    7.0078    0.0000 </r>
       <r>    7.2323    0.0000 </r>
       <r>    7.4853    0.0000 </r>
       <r>    7.4894    0.0000 </r>
       <r>    7.4927    0.0000 </r>
       <r>    7.6172    0.0000 </r>
       <r>    7.6215    0.0000 </r>
       <r>    7.6239    0.0000 </r>
       <r>    7.7764    0.0000 </r>
       <r>    7.7794    0.0000 </r>
       <r>    7.7822    0.0000 </r>
       <r>    7.7984    0.0000 </r>
       <r>    7.8002    0.0000 </r>
       <r>    7.8031    0.0000 </r>
       <r>    8.0264    0.0000 </r>
       <r>    8.0283    0.0000 </r>
       <r>    8.0318    0.0000 </r>
       <r>    8.0328    0.0000 </r>
       <r>    8.0362    0.0000 </r>
       <r>    8.0376    0.0000 </r>
       <r>    8.0793    0.0000 </r>
       <r>    8.2917    0.0000 </r>
       <r>    8.2953    0.0000 </r>
       <r>    8.2972    0.0000 </r>
       <r>    8.4937    0.0000 </r>
       <r>    8.4991    0.0000 </r>
       <r>    8.5023    0.0000 </r>
       <r>    8.5057    0.0000 </r>
       <r>    8.5090    0.0000 </r>
       <r>    8.5176    0.0000 </r>
       <r>    8.5415    0.0000 </r>
      </set>
      <set comment="kpoint 4">
       <r>   -5.9932    1.0000 </r>
       <r>   -5.4683    1.0000 </r>
       <r>   -5.4654    1.0000 </r>
       <r>   -5.4606    1.0000 </r>
       <r>   -4.9689    1.0000 </r>
       <r>   -4.9662    1.0000 </r>
       <r>   -4.9615    1.0000 </r>
       <r>   -4.5322    1.0000 </r>
       <r>   -4.4359    1.0000 </r>
       <r>   -4.4333    1.0000 </r>
       <r>   -4.4282    1.0000 </r>
       <r>   -4.0247    1.0000 </r>
       <r>   -4.0185    1.0000 </r>
       <r>   -4.0182    1.0000 </r>
       <r>   -4.0152    1.0000 </r>
       <r>   -4.0137    1.0000 </r>
       <r>   -4.0084    1.0000 </r>
       <r>   -3.8282    1.0000 </r>
       <r>   -3.8244    1.0000 </r>
       <r>   -3.8203    1.0000 </r>
       <r>   -3.3323    1.0000 </r>
       <r>   -3.3294    1.0000 </r>
       <r>   -3.3234    1.0000 </r>
       <r>   -2.9628    1.0000 </r>
       <r>   -2.9591    1.0000 </r>
       <r>   -2.9557    1.0000 </r>
       <r>   -2.7990    1.0000 </r>
       <r>   -2.7933    1.0000 </r>
       <r>   -2.7924    1.0000 </r>
       <r>   -2.7894    1.0000 </r>
       <r>   -2.7878    1.0000 </r>
       <r>   -2.7830    1.0000 </r>
       <r>   -1.2580    1.0000 </r>
       <r>   -1.2524    1.0000 </r>
       <r>   -1.2502    1.0000 </r>
       <r>   -1.2472    1.0000 </r>
       <r>   -1.2449    1.0000 </r>
       <r>   -1.2407    1.0000 </r>
       <r>   -1.1543    1.0000 </r>
       <r>   -1.1513    1.0000 </r>
       <r>   -1.1475    1.0000 </r>
       <r>   -1.0376    1.0000 </r>
       <r>   -1.0327    1.0000 </r>
       <r>   -1.0277    1.0000 </r>
       <r>   -0.9537    1.0000 </r>
       <r>   -0.9467    1.0000 </r>
       <r>   -0.9396    1.0000 </r>
       <r>   -0.2446    1.0000 </r>
       <r>   -0.1679    1.0000 </r>
       <r>   -0.1651    1.0000 </r>
       <r>   -0.1620    1.0000 </r>
       <r>   -0.1587    1.0000 </r>
       <r>   -0.1552    1.0000 </r>
       <r>   -0.1518    1.0000 </r>
       <r>    0.7091    1.0000 </r>
       <r>    0.7140    1.0000 </r>
       <r>    0.7198    1.0000 </r>
       <r>    1.0430    1.0000 </r>
       <r>    1.0469    1.0000 </r>
       <r>    1.0514    1.0000 </r>
       <r>    1.6524    1.0000 </r>
       <r>    1.6547    1.0000 </r>
       <r>    1.6562    1.0000 </r>
       <r>    1.6574    1.0000 </r>
       <r>    1.6585    1.0000 </r>
       <r>    1.6626    1.0000 </r>
       <r>    1.7129    1.0000 </r>
       <r>    1.7159    1.0000 </r>
       <r>    1.7193    1.0000 </r>
       <r>    2.2656    1.0000 </r>
       <r>    2.2676    1.0000 </r>
       <r>    2.2699    1.0000 </r>
       <r>    2.3649    1.0000 </r>
       <r>    2.3669    1.0000 </r>
       <r>    2.3702    1.0000 </r>
       <r>    2.3722    1.0000 </r>
       <r>    2.3751    1.0000 </r>
       <r>    2.3759    1.0000 </r>
       <r>    2.4212    1.0000 </r>
       <r>    2.4245    1.0000 </r>
       <r>    2.4294    1.0000 </r>
       <r>    2.7296    1.0000 </r>
       <r>    2.7321    1.0000 </r>
       <r>    2.7339    1.0000 </r>
       <r>    2.7346    1.0000 </r>
       <r>    2.7372    1.0000 </r>
       <r>    2.7421    1.0000 </r>
       <r>    2.9973    1.0000 </r>
       <r>    2.9993    1.0000 </r>
       <r>    3.0010    1.0000 </r>
       <r>    3.0098    1.0000 </r>
       <r>    3.0134    1.0000 </r>
       <r>    3.0174    1.0000 </r>
       <r>    3.3579    1.0000 </r>
       <r>    3.3624    1.0000 </r>
       <r>    3.3648    1.0000 </r>
       <r>    3.3807    1.0000 </r>
       <r>    3.3844    1.0000 </r>
       <r>    3.3887    1.0000 </r>
       <r>    3.4635    1.0000 </r>
       <r>    3.4663    1.0000 </r>
       <r>    3.4701    1.0000 </r>
       <r>    3.7337    1.0000 </r>
       <r>    3.7390    1.0000 </r>
       <r>    3.7402    1.0000 </r>
       <r>    3.7419    1.0000 </r>
       <r>    3.7435    1.0000 </r>
       <r>    3.7492    1.0000 </r>
       <r>    3.7771    1.0000 </r>
       <r>    3.7804    1.0000 </r>
       <r>    3.7846    1.0000 </r>
       <r>    4.0404    1.0000 </r>
       <r>    4.0958    1.0000 </r>
       <r>    4.0983    1.0000 </r>
       <r>    4.1000    1.0000 </r>
       <r>    4.3373    1.0000 </r>
       <r>    4.3407    1.0000 </r>
       <r>    4.3450    1.0000 </r>
       <r>    4.4005    1.0000 </r>
       <r>    4.4056    1.0000 </r>
       <r>    4.4117    1.0000 </r>
       <r>    4.5588    1.0000 </r>
       <r>    4.5669    1.0000 </r>
       <r>    4.8651    1.0000 </r>
       <r>    4.8698    1.0000 </r>
       <r>    4.8753    1.0000 </r>
       <r>    5.3451    1.0000 </r>
       <r>    5.3543    1.0000 </r>
       <r>    6.5603    0.0000 </r>
       <r>    6.5632    0.0000 </r>
       <r>    6.5666    0.0000 </r>
       <r>    6.9991    0.0000 </r>
       <r>    7.0054    0.0000 </r>
       <r>    7.0088    0.0000 </r>
       <r>    7.2337    0.0000 </r>
       <r>    7.4858    0.0000 </r>
       <r>    7.4918    0.0000 </r>
       <r>    7.4944    0.0000 </r>
       <r>    7.6157    0.0000 </r>
       <r>    7.6196    0.0000 </r>
       <r>    7.6232    0.0000 </r>
       <r>    7.7757    0.0000 </r>
       <r>    7.7805    0.0000 </r>
       <r>    7.7828    0.0000 </r>
       <r>    7.7995    0.0000 </r>
       <r>    7.8012    0.0000 </r>
       <r>    7.8035    0.0000 </r>
       <r>    8.0251    0.0000 </r>
       <r>    8.0268    0.0000 </r>
       <r>    8.0284    0.0000 </r>
       <r>    8.0312    0.0000 </r>
       <r>    8.0337    0.0000 </r>
       <r>    8.0377    0.0000 </r>
       <r>    8.0815    0.0000 </r>
       <r>    8.2914    0.0000 </r>
       <r>    8.2955    0.0000 </r>
       <r>    8.2981    0.0000 </r>
       <r>    8.4933    0.0000 </r>
       <r>    8.4992    0.0000 </r>
       <r>    8.5025    0.0000 </r>
       <r>    8.5062    0.0000 </r>
       <r>    8.5098    0.0000 </r>
       <r>    8.5127    0.0000 </r>
       <r>    8.5402    0.0000 </r>
      </set>
     </set>
    </set>
   </array>
  </eigenvalues>
  <separator name="orbital magnetization" >
   <v name="MAGDIPOLOUT">      0.00000000      0.00000000      0.00000000</v>
  </separator>
  <dos>
   <i name="efermi">      5.59924215 </i>
   <total>
    <array>
     <dimension dim="1">gridpoints</dimension>
     <dimension dim="2">spin</dimension>
     <field>energy</field>
     <field>total</field>
     <field>integrated</field>
     <set>
      <set comment="spin 1">
       <r>    -6.7203     0.0000     0.0000 </r>
       <r>    -6.6670     0.0000     0.0000 </r>
       <r>    -6.6136     0.0000     0.0000 </r>
       <r>    -6.5603     0.0000     0.0000 </r>
       <r>    -6.5070     0.0000     0.0000 </r>
       <r>    -6.4537     0.0000     0.0000 </r>
       <r>    -6.4004     0.0000     0.0000 </r>
       <r>    -6.3471     0.0000     0.0000 </r>
       <r>    -6.2937     0.0000     0.0000 </r>
       <r>    -6.2404     0.0000     0.0000 </r>
       <r>    -6.1871     0.0000     0.0000 </r>
       <r>    -6.1338     0.0013     0.0001 </r>
       <r>    -6.0805     0.2525     0.0135 </r>
       <r>    -6.0272     6.0544     0.3363 </r>
       <r>    -5.9738    20.2376     1.4153 </r>
       <r>    -5.9205    10.2172     1.9601 </r>
       <r>    -5.8672     0.7418     1.9996 </r>
       <r>    -5.8139     0.0069     2.0000 </r>
       <r>    -5.7606     0.0000     2.0000 </r>
       <r>    -5.7073     0.0000     2.0000 </r>
       <r>    -5.6539     0.0000     2.0000 </r>
       <r>    -5.6006     0.0072     2.0004 </r>
       <r>    -5.5473     1.1166     2.0599 </r>
       <r>    -5.4940    21.9480     3.2301 </r>
       <r>    -5.4407    61.4929     6.5087 </r>
       <r>    -5.3874    26.3317     7.9126 </r>
       <r>    -5.3340     1.6255     7.9993 </r>
       <r>    -5.2807     0.0129     8.0000 </r>
       <r>    -5.2274     0.0000     8.0000 </r>
       <r>    -5.1741     0.0000     8.0000 </r>
       <r>    -5.1208     0.0007     8.0000 </r>
       <r>    -5.0675     0.2274     8.0122 </r>
       <r>    -5.0141     9.3644     8.5114 </r>
       <r>    -4.9608    52.6045    11.3161 </r>
       <r>    -4.9075    44.6016    13.6942 </r>
       <r>    -4.8542     5.6407    13.9949 </r>
       <r>    -4.8009     0.0954    14.0000 </r>
       <r>    -4.7476     0.0002    14.0000 </r>
       <r>    -4.6942     0.0001    14.0000 </r>
       <r>    -4.6409     0.0397    14.0021 </r>
       <r>    -4.5876     2.1653    14.1176 </r>
       <r>    -4.5343    15.9203    14.9664 </r>
       <r>    -4.4810    26.2682    16.3669 </r>
       <r>    -4.4277    55.3634    19.3187 </r>
       <r>    -4.3743    44.5778    21.6955 </r>
       <r>    -4.3210     5.6167    21.9949 </r>
       <r>    -4.2677     0.0948    22.0000 </r>
       <r>    -4.2144     0.0002    22.0000 </r>
       <r>    -4.1611     0.0057    22.0003 </r>
       <r>    -4.1078     1.1743    22.0629 </r>
       <r>    -4.0544    31.1125    23.7217 </r>
       <r>    -4.0011   117.6787    29.9960 </r>
       <r>    -3.9478    69.0199    33.6759 </r>
       <r>    -3.8945     8.7128    34.1404 </r>
       <r>    -3.8412    33.0936    35.9049 </r>
       <r>    -3.7879    59.6843    39.0871 </r>
       <r>    -3.7345    16.4796    39.9657 </r>
       <r>    -3.6812     0.6400    39.9998 </r>
       <r>    -3.6279     0.0031    40.0000 </r>
       <r>    -3.5746     0.0000    40.0000 </r>
       <r>    -3.5213     0.0000    40.0000 </r>
       <r>    -3.4679     0.0048    40.0003 </r>
       <r>    -3.4146     0.8503    40.0456 </r>
       <r>    -3.3613    19.0525    41.0614 </r>
       <r>    -3.3080    60.7428    44.3000 </r>
       <r>    -3.2547    29.7371    45.8855 </r>
       <r>    -3.2014     2.1274    45.9989 </r>
       <r>    -3.1480     0.0198    46.0000 </r>
       <r>    -3.0947     0.0075    46.0004 </r>
       <r>    -3.0414     1.1413    46.0613 </r>
       <r>    -2.9881    22.1955    47.2446 </r>
       <r>    -2.9348    61.5414    50.5258 </r>
       <r>    -2.8815    27.2981    51.9813 </r>
       <r>    -2.8281    33.6142    53.7735 </r>
       <r>    -2.7748   118.2056    60.0758 </r>
       <r>    -2.7215    67.7374    63.6874 </r>
       <r>    -2.6682     5.7973    63.9965 </r>
       <r>    -2.6149     0.0662    64.0000 </r>
       <r>    -2.5616     0.0001    64.0000 </r>
       <r>    -2.5082     0.0000    64.0000 </r>
       <r>    -2.4549     0.0000    64.0000 </r>
       <r>    -2.4016     0.0000    64.0000 </r>
       <r>    -2.3483     0.0000    64.0000 </r>
       <r>    -2.2950     0.0000    64.0000 </r>
       <r>    -2.2417     0.0000    64.0000 </r>
       <r>    -2.1883     0.0000    64.0000 </r>
       <r>    -2.1350     0.0000    64.0000 </r>
       <r>    -2.0817     0.0000    64.0000 </r>
       <r>    -2.0284     0.0000    64.0000 </r>
       <r>    -1.9751     0.0000    64.0000 </r>
       <r>    -1.9218     0.0000    64.0000 </r>
       <r>    -1.8684     0.0000    64.0000 </r>
       <r>    -1.8151     0.0000    64.0000 </r>
       <r>    -1.7618     0.0000    64.0000 </r>
       <r>    -1.7085     0.0000    64.0000 </r>
       <r>    -1.6552     0.0000    64.0000 </r>
       <r>    -1.6019     0.0000    64.0000 </r>
       <r>    -1.5485     0.0000    64.0000 </r>
       <r>    -1.4952     0.0000    64.0000 </r>
       <r>    -1.4419     0.0000    64.0000 </r>
       <r>    -1.3886     0.0104    64.0006 </r>
       <r>    -1.3353     1.7482    64.0938 </r>
       <r>    -1.2820    38.1724    66.1290 </r>
       <r>    -1.2286   122.5103    72.6608 </r>
       <r>    -1.1753    86.0125    77.2468 </r>
       <r>    -1.1220    66.5855    80.7969 </r>
       <r>    -1.0687    38.9196    82.8720 </r>
       <r>    -1.0154    63.9871    86.2835 </r>
       <r>    -0.9621    67.1393    89.8632 </r>
       <r>    -0.9087    61.2376    93.1282 </r>
       <r>    -0.8554    15.7380    93.9673 </r>
       <r>    -0.8021     0.6104    93.9998 </r>
       <r>    -0.7488     0.0031    94.0000 </r>
       <r>    -0.6955     0.0000    94.0000 </r>
       <r>    -0.6422     0.0000    94.0000 </r>
       <r>    -0.5888     0.0000    94.0000 </r>
       <r>    -0.5355     0.0000    94.0000 </r>
       <r>    -0.4822     0.0000    94.0000 </r>
       <r>    -0.4289     0.0000    94.0000 </r>
       <r>    -0.3756     0.0041    94.0002 </r>
       <r>    -0.3223     0.5298    94.0285 </r>
       <r>    -0.2689     8.9568    94.5060 </r>
       <r>    -0.2156    33.7864    96.3074 </r>
       <r>    -0.1623   100.8742   101.6857 </r>
       <r>    -0.1090   101.2803   107.0856 </r>
       <r>    -0.0557    16.7612   107.9793 </r>
       <r>    -0.0024     0.3873   107.9999 </r>
       <r>     0.0510     0.0011   108.0000 </r>
       <r>     0.1043     0.0000   108.0000 </r>
       <r>     0.1576     0.0000   108.0000 </r>
       <r>     0.2109     0.0000   108.0000 </r>
       <r>     0.2642     0.0000   108.0000 </r>
       <r>     0.3175     0.0000   108.0000 </r>
       <r>     0.3709     0.0000   108.0000 </r>
       <r>     0.4242     0.0000   108.0000 </r>
       <r>     0.4775     0.0000   108.0000 </r>
       <r>     0.5308     0.0000   108.0000 </r>
       <r>     0.5841     0.0148   108.0008 </r>
       <r>     0.6374     1.7399   108.0936 </r>
       <r>     0.6908    26.9151   109.5286 </r>
       <r>     0.7441    61.1852   112.7908 </r>
       <r>     0.7974    21.5733   113.9410 </r>
       <r>     0.8507     1.0994   113.9996 </r>
       <r>     0.9040     0.0103   114.0002 </r>
       <r>     0.9573     0.6389   114.0342 </r>
       <r>     1.0107    16.4898   114.9134 </r>
       <r>     1.0640    59.7287   118.0980 </r>
       <r>     1.1173    32.9844   119.8566 </r>
       <r>     1.1706     2.6619   119.9985 </r>
       <r>     1.2239     0.0280   120.0000 </r>
       <r>     1.2772     0.0000   120.0000 </r>
       <r>     1.3306     0.0000   120.0000 </r>
       <r>     1.3839     0.0000   120.0000 </r>
       <r>     1.4372     0.0000   120.0000 </r>
       <r>     1.4905     0.0003   120.0000 </r>
       <r>     1.5438     0.1606   120.0086 </r>
       <r>     1.5971    10.2200   120.5535 </r>
       <r>     1.6505    89.4401   125.3221 </r>
       <r>     1.7038   145.2321   133.0654 </r>
       <r>     1.7571    78.1180   137.2305 </r>
       <r>     1.8104    13.9948   137.9766 </r>
       <r>     1.8637     0.4369   137.9999 </r>
       <r>     1.9170     0.0017   138.0000 </r>
       <r>     1.9704     0.0000   138.0000 </r>
       <r>     2.0237     0.0000   138.0000 </r>
       <r>     2.0770     0.0000   138.0000 </r>
       <r>     2.1303     0.0059   138.0003 </r>
       <r>     2.1836     0.9832   138.0527 </r>
       <r>     2.2370    20.6939   139.1561 </r>
       <r>     2.2903    64.0160   142.5692 </r>
       <r>     2.3436    76.1733   146.6305 </r>
       <r>     2.3969   147.6282   154.5016 </r>
       <r>     2.4502   110.8410   160.4113 </r>
       <r>     2.5035    28.2519   161.9176 </r>
       <r>     2.5569     1.5343   161.9994 </r>
       <r>     2.6102     0.0617   162.0027 </r>
       <r>     2.6635     4.9409   162.2661 </r>
       <r>     2.7168    63.6435   165.6594 </r>
       <r>     2.7701   120.1862   172.0673 </r>
       <r>     2.8234    34.8129   173.9234 </r>
       <r>     2.8768     1.4658   174.0016 </r>
       <r>     2.9301     3.8801   174.2085 </r>
       <r>     2.9834    55.1756   177.1502 </r>
       <r>     3.0367   120.7565   183.5886 </r>
       <r>     3.0900    42.8949   185.8756 </r>
       <r>     3.1433     2.3161   185.9991 </r>
       <r>     3.1967     0.0171   186.0000 </r>
       <r>     3.2500     0.0998   186.0053 </r>
       <r>     3.3033     6.7289   186.3641 </r>
       <r>     3.3566    67.3033   189.9525 </r>
       <r>     3.4099   120.5595   196.3803 </r>
       <r>     3.4632    80.5984   200.6776 </r>
       <r>     3.5166    53.3496   203.5220 </r>
       <r>     3.5699     8.7633   203.9892 </r>
       <r>     3.6232     0.3078   204.0057 </r>
       <r>     3.6765     7.9306   204.4285 </r>
       <r>     3.7298    84.7612   208.9477 </r>
       <r>     3.7831   164.4646   217.7164 </r>
       <r>     3.8365    72.9226   221.6044 </r>
       <r>     3.8898     7.2967   221.9935 </r>
       <r>     3.9431     0.2364   222.0061 </r>
       <r>     3.9964     4.1392   222.2268 </r>
       <r>     4.0497    28.1207   223.7261 </r>
       <r>     4.1030    66.3140   227.2617 </r>
       <r>     4.1564    45.7308   229.6999 </r>
       <r>     4.2097     5.5484   229.9958 </r>
       <r>     4.2630     1.6558   230.0840 </r>
       <r>     4.3163    26.4937   231.4966 </r>
       <r>     4.3696    78.3144   235.6721 </r>
       <r>     4.4229    81.8568   240.0364 </r>
       <r>     4.4763    34.6125   241.8819 </r>
       <r>     4.5296    15.2462   242.6947 </r>
       <r>     4.5829    40.4763   244.8528 </r>
       <r>     4.6362    20.0521   245.9219 </r>
       <r>     4.6895     1.4510   245.9993 </r>
       <r>     4.7428     0.0335   246.0011 </r>
       <r>     4.7962     2.1130   246.1137 </r>
       <r>     4.8495    29.5406   247.6887 </r>
       <r>     4.9028    60.7156   250.9259 </r>
       <r>     4.9561    19.2657   251.9531 </r>
       <r>     5.0094     0.8750   251.9997 </r>
       <r>     5.0627     0.0051   252.0000 </r>
       <r>     5.1161     0.0000   252.0000 </r>
       <r>     5.1694     0.0000   252.0000 </r>
       <r>     5.2227     0.0134   252.0007 </r>
       <r>     5.2760     1.4257   252.0767 </r>
       <r>     5.3293    19.8185   253.1334 </r>
       <r>     5.3826    40.4501   255.2901 </r>
       <r>     5.4360    12.7382   255.9692 </r>
       <r>     5.4893     0.5740   255.9998 </r>
       <r>     5.5426     0.0033   256.0000 </r>
       <r>     5.5959     0.0000   256.0000 </r>
       <r>     5.6492     0.0000   256.0000 </r>
       <r>     5.7025     0.0000   256.0000 </r>
       <r>     5.7559     0.0000   256.0000 </r>
       <r>     5.8092     0.0000   256.0000 </r>
       <r>     5.8625     0.0000   256.0000 </r>
       <r>     5.9158     0.0000   256.0000 </r>
       <r>     5.9691     0.0000   256.0000 </r>
       <r>     6.0224     0.0000   256.0000 </r>
       <r>     6.0758     0.0000   256.0000 </r>
       <r>     6.1291     0.0000   256.0000 </r>
       <r>     6.1824     0.0000   256.0000 </r>
       <r>     6.2357     0.0000   256.0000 </r>
       <r>     6.2890     0.0000   256.0000 </r>
       <r>     6.3423     0.0000   256.0000 </r>
       <r>     6.3957     0.0001   256.0000 </r>
       <r>     6.4490     0.0706   256.0038 </r>
       <r>     6.5023     4.7110   256.2549 </r>
       <r>     6.5556    41.7228   258.4795 </r>
       <r>     6.6089    54.8265   261.4026 </r>
       <r>     6.6622    10.9048   261.9841 </r>
       <r>     6.7156     0.2980   261.9999 </r>
       <r>     6.7689     0.0010   262.0000 </r>
       <r>     6.8222     0.0000   262.0000 </r>
       <r>     6.8755     0.0162   262.0009 </r>
       <r>     6.9288     1.8683   262.1005 </r>
       <r>     6.9821    27.9778   263.5922 </r>
       <r>     7.0355    61.1273   266.8513 </r>
       <r>     7.0888    20.5515   267.9470 </r>
       <r>     7.1421     1.1675   268.0093 </r>
       <r>     7.1954     5.0568   268.2789 </r>
       <r>     7.2487    19.6930   269.3288 </r>
       <r>     7.3020    11.5871   269.9466 </r>
       <r>     7.3554     0.9978   269.9998 </r>
       <r>     7.4087     1.1824   270.0629 </r>
       <r>     7.4620    22.3986   271.2571 </r>
       <r>     7.5153    61.6546   274.5443 </r>
       <r>     7.5686    34.2318   276.3695 </r>
       <r>     7.6219    52.3719   279.1618 </r>
       <r>     7.6753    46.8906   281.6618 </r>
       <r>     7.7286    16.8875   282.5622 </r>
       <r>     7.7819    81.3164   286.8977 </r>
       <r>     7.8352   107.5161   292.6302 </r>
       <r>     7.8885    24.7990   293.9524 </r>
       <r>     7.9418     2.3301   294.0766 </r>
       <r>     7.9952    34.9761   295.9414 </r>
       <r>     8.0485   126.2170   302.6709 </r>
       <r>     8.1018    84.2638   307.1636 </r>
       <r>     8.1551    14.9396   307.9601 </r>
       <r>     8.2084     1.5650   308.0435 </r>
       <r>     8.2618    18.7993   309.0459 </r>
       <r>     8.3151    60.8066   312.2879 </r>
       <r>     8.3684    29.9741   313.8860 </r>
       <r>     8.4217     4.5963   314.1311 </r>
       <r>     8.4750    45.3044   316.5465 </r>
       <r>     8.5283   132.9479   323.6349 </r>
       <r>     8.5817    73.1790   327.5366 </r>
       <r>     8.6350     8.4904   327.9893 </r>
       <r>     8.6883     0.2008   328.0000 </r>
       <r>     8.7416     0.0008   328.0000 </r>
       <r>     8.7949     0.0000   328.0000 </r>
       <r>     8.8482     0.0000   328.0000 </r>
       <r>     8.9016     0.0000   328.0000 </r>
       <r>     8.9549     0.0000   328.0000 </r>
       <r>     9.0082     0.0000   328.0000 </r>
       <r>     9.0615     0.0000   328.0000 </r>
       <r>     9.1148     0.0000   328.0000 </r>
       <r>     9.1681     0.0000   328.0000 </r>
       <r>     9.2215     0.0000   328.0000 </r>
       <r>     9.2748     0.0000   328.0000 </r>
      </set>
     </set>
    </array>
   </total>
  </dos>
 </calculation>
 <structure name="finalpos" >
  <crystal>
   <varray name="basis" >
    <v>      10.93252578       0.00000000       0.00000000 </v>
    <v>       0.00000000      10.93252578       0.00000000 </v>
    <v>       0.00000000       0.00000000      10.93252578 </v>
   </varray>
   <i name="volume">   1306.65679237 </i>
   <varray name="rec_basis" >
    <v>       0.09147017       0.00000000       0.00000000 </v>
    <v>       0.00000000       0.09147017       0.00000000 </v>
    <v>       0.00000000       0.00000000       0.09147017 </v>
   </varray>
  </crystal>
  <varray name="positions" >
   <v>       0.44024411       0.43750000       0.43750000 </v>
   <v>       0.93750000       0.43750000       0.43750000 </v>
   <v>       0.43750000       0.93750000       0.43750000 </v>
   <v>       0.93750000       0.93750000       0.43750000 </v>
   <v>       0.43750000       0.43750000       0.93750000 </v>
   <v>       0.93750000       0.43750000       0.93750000 </v>
   <v>       0.43750000       0.93750000       0.93750000 </v>
   <v>       0.93750000       0.93750000       0.93750000 </v>
   <v>       0.43750000       0.18750000       0.18750000 </v>
   <v>       0.93750000       0.18750000       0.18750000 </v>
   <v>       0.43750000       0.68750000       0.18750000 </v>
   <v>       0.93750000       0.68750000       0.18750000 </v>
   <v>       0.43750000       0.18750000       0.68750000 </v>
   <v>       0.93750000       0.18750000       0.68750000 </v>
   <v>       0.43750000       0.68750000       0.68750000 </v>
   <v>       0.93750000       0.68750000       0.68750000 </v>
   <v>       0.18750000       0.43750000       0.18750000 </v>
   <v>       0.68750000       0.43750000       0.18750000 </v>
   <v>       0.18750000       0.93750000       0.18750000 </v>
   <v>       0.68750000       0.93750000       0.18750000 </v>
   <v>       0.18750000       0.43750000       0.68750000 </v>
   <v>       0.68750000       0.43750000       0.68750000 </v>
   <v>       0.18750000       0.93750000       0.68750000 </v>
   <v>       0.68750000       0.93750000       0.68750000 </v>
   <v>       0.18750000       0.18750000       0.43750000 </v>
   <v>       0.68750000       0.18750000       0.43750000 </v>
   <v>       0.18750000       0.68750000       0.43750000 </v>
   <v>       0.68750000       0.68750000       0.43750000 </v>
   <v>       0.18750000       0.18750000       0.93750000 </v>
   <v>       0.68750000       0.18750000       0.93750000 </v>
   <v>       0.18750000       0.68750000       0.93750000 </v>
   <v>       0.68750000       0.68750000       0.93750000 </v>
   <v>       0.06250000       0.06250000       0.06250000 </v>
   <v>       0.56250000       0.06250000       0.06250000 </v>
   <v>       0.06250000       0.56250000       0.06250000 </v>
   <v>       0.56250000       0.56250000       0.06250000 </v>
   <v>       0.06250000       0.06250000       0.56250000 </v>
   <v>       0.56250000       0.06250000       0.56250000 </v>
   <v>       0.06250000       0.56524411       0.56250000 </v>
   <v>       0.56250000       0.56250000       0.56250000 </v>
   <v>       0.06250000       0.31250000       0.31250000 </v>
   <v>       0.56250000       0.31250000       0.31250000 </v>
   <v>       0.06250000       0.81250000       0.31250000 </v>
   <v>       0.56250000       0.81250000       0.31250000 </v>
   <v>       0.06250000       0.31250000       0.81250000 </v>
   <v>       0.56250000       0.31250000       0.81250000 </v>
   <v>       0.06250000       0.81250000       0.81250000 </v>
   <v>       0.56250000       0.81250000       0.81250000 </v>
   <v>       0.31250000       0.06250000       0.31250000 </v>
   <v>       0.81250000       0.06250000       0.31250000 </v>
   <v>       0.31250000       0.56250000       0.31250000 </v>
   <v>       0.81250000       0.56250000       0.31250000 </v>
   <v>       0.31250000       0.06250000       0.81250000 </v>
   <v>       0.81250000       0.06250000       0.81250000 </v>
   <v>       0.31250000       0.56250000       0.81250000 </v>
   <v>       0.81250000       0.56250000       0.81250000 </v>
   <v>       0.31250000       0.31250000       0.06250000 </v>
   <v>       0.81250000       0.31250000       0.06250000 </v>
   <v>       0.31250000       0.81250000       0.06250000 </v>
   <v>       0.81250000       0.81250000       0.06250000 </v>
   <v>       0.31250000       0.31250000       0.56250000 </v>
   <v>       0.81250000       0.31250000       0.56250000 </v>
   <v>       0.31250000       0.81250000       0.56250000 </v>
   <v>       0.81250000       0.81250000       0.56250000 </v>
  </varray>
 </structure>
</modeling>
