
     Program PWSCF v.5.3.0 (svn rev. 11974) starts on  3Feb2016 at 13:37:43 

     This program is part of the open-source Quantum ESPRESSO suite
     for quantum simulation of materials; please cite
         "P. Giannozzi et al., J. Phys.:Condens. Matter 21 395502 (2009);
          URL http://www.quantum-espresso.org", 
     in publications or presentations arising from this work. More details at
     http://www.quantum-espresso.org/quote

     Parallel version (MPI), running on    16 processors
     R & G space division:  proc/nbgrp/npool/nimage =      16
     Reading input from Si.in

     Current dimensions of program PWSCF are:
     Max number of different atomic species (ntypx) = 10
     Max number of k-points (npk) =  40000
     Max angular momentum in pseudopotentials (lmaxx) =  3
               file Si.pbe-n-kjpaw_psl.0.1.UPF: wavefunction(s)  3S renormalized

     Subspace diagonalization in iterative solution of the eigenvalue problem:
     one sub-group per k-point group (pool) will be used
     scalapack distributed-memory algorithm (size of sub-group:  2*  2 procs)

 
     Parallelization info
     --------------------
     sticks:   dense  smooth     PW     G-vecs:    dense   smooth      PW
     Min         424     424    109                26332    26332    3467
     Max         425     425    110                26336    26336    3472
     Sum        6785    6785   1757               421349   421349   55515
 


     bravais-lattice index     =            0
     lattice parameter (alat)  =      20.6591  a.u.
     unit-cell volume          =    8817.2783 (a.u.)^3
     number of atoms/cell      =           64
     number of atomic types    =            1
     number of electrons       =       256.00
     number of Kohn-Sham states=          154
     kinetic-energy cutoff     =      50.0000  Ry
     charge density cutoff     =     200.0000  Ry
     convergence threshold     =      1.0E-09
     mixing beta               =       0.7000
     number of iterations used =            8  plain     mixing
     Exchange-correlation      =  SLA  PW   PBX  PBC ( 1  4  3  4 0 0)

     celldm(1)=  20.659106  celldm(2)=   0.000000  celldm(3)=   0.000000
     celldm(4)=   0.000000  celldm(5)=   0.000000  celldm(6)=   0.000000

     crystal axes: (cart. coord. in units of alat)
               a(1) = (   1.000000   0.000000   0.000000 )  
               a(2) = (   0.000000   1.000000   0.000000 )  
               a(3) = (   0.000000   0.000000   1.000000 )  

     reciprocal axes: (cart. coord. in units 2 pi/alat)
               b(1) = (  1.000000  0.000000  0.000000 )  
               b(2) = (  0.000000  1.000000  0.000000 )  
               b(3) = (  0.000000  0.000000  1.000000 )  


     PseudoPot. # 1 for Si read from file:
     /home/togo/espresso/pseudo/Si.pbe-n-kjpaw_psl.0.1.UPF
     MD5 check sum: b9d333a40e496bef61db012f150758bf
     Pseudo is Projector augmented-wave + core cor, Zval =  4.0
     Generated using "atomic" code by A. Dal Corso  v.5.0.2 svn rev. 9415
     Shape of augmentation charge: PSQ
     Using radial grid of 1141 points,  4 beta functions with: 
                l(1) =   0
                l(2) =   0
                l(3) =   1
                l(4) =   1
     Q(r) pseudized with 0 coefficients 


     atomic species   valence    mass     pseudopotential
        Si             4.00    28.08550     Si( 1.00)

     No symmetry found



   Cartesian axes

     site n.     atom                  positions (alat units)
         1           Si  tau(   1) = (   0.4404043   0.4375000   0.4375000  )
         2           Si  tau(   2) = (   0.9375000   0.4375000   0.4375000  )
         3           Si  tau(   3) = (   0.4375000   0.9375000   0.4375000  )
         4           Si  tau(   4) = (   0.9375000   0.9375000   0.4375000  )
         5           Si  tau(   5) = (   0.4375000   0.4375000   0.9375000  )
         6           Si  tau(   6) = (   0.9375000   0.4375000   0.9375000  )
         7           Si  tau(   7) = (   0.4375000   0.9375000   0.9375000  )
         8           Si  tau(   8) = (   0.9375000   0.9375000   0.9375000  )
         9           Si  tau(   9) = (   0.4375000   0.1875000   0.1875000  )
        10           Si  tau(  10) = (   0.9375000   0.1875000   0.1875000  )
        11           Si  tau(  11) = (   0.4375000   0.6875000   0.1875000  )
        12           Si  tau(  12) = (   0.9375000   0.6875000   0.1875000  )
        13           Si  tau(  13) = (   0.4375000   0.1875000   0.6875000  )
        14           Si  tau(  14) = (   0.9375000   0.1875000   0.6875000  )
        15           Si  tau(  15) = (   0.4375000   0.6875000   0.6875000  )
        16           Si  tau(  16) = (   0.9375000   0.6875000   0.6875000  )
        17           Si  tau(  17) = (   0.1875000   0.4375000   0.1875000  )
        18           Si  tau(  18) = (   0.6845957   0.4375000   0.1875000  )
        19           Si  tau(  19) = (   0.1875000   0.9375000   0.1875000  )
        20           Si  tau(  20) = (   0.6875000   0.9375000   0.1875000  )
        21           Si  tau(  21) = (   0.1875000   0.4375000   0.6875000  )
        22           Si  tau(  22) = (   0.6875000   0.4375000   0.6875000  )
        23           Si  tau(  23) = (   0.1875000   0.9375000   0.6875000  )
        24           Si  tau(  24) = (   0.6875000   0.9375000   0.6875000  )
        25           Si  tau(  25) = (   0.1875000   0.1875000   0.4375000  )
        26           Si  tau(  26) = (   0.6875000   0.1875000   0.4375000  )
        27           Si  tau(  27) = (   0.1875000   0.6875000   0.4375000  )
        28           Si  tau(  28) = (   0.6875000   0.6875000   0.4375000  )
        29           Si  tau(  29) = (   0.1875000   0.1875000   0.9375000  )
        30           Si  tau(  30) = (   0.6875000   0.1875000   0.9375000  )
        31           Si  tau(  31) = (   0.1875000   0.6875000   0.9375000  )
        32           Si  tau(  32) = (   0.6875000   0.6875000   0.9375000  )
        33           Si  tau(  33) = (   0.0625000   0.0625000   0.0625000  )
        34           Si  tau(  34) = (   0.5625000   0.0625000   0.0625000  )
        35           Si  tau(  35) = (   0.0625000   0.5625000   0.0625000  )
        36           Si  tau(  36) = (   0.5625000   0.5625000   0.0625000  )
        37           Si  tau(  37) = (   0.0625000   0.0625000   0.5625000  )
        38           Si  tau(  38) = (   0.5625000   0.0625000   0.5625000  )
        39           Si  tau(  39) = (   0.0625000   0.5625000   0.5625000  )
        40           Si  tau(  40) = (   0.5625000   0.5625000   0.5625000  )
        41           Si  tau(  41) = (   0.0625000   0.3125000   0.3125000  )
        42           Si  tau(  42) = (   0.5625000   0.3125000   0.3125000  )
        43           Si  tau(  43) = (   0.0625000   0.8125000   0.3125000  )
        44           Si  tau(  44) = (   0.5625000   0.8125000   0.3125000  )
        45           Si  tau(  45) = (   0.0625000   0.3125000   0.8125000  )
        46           Si  tau(  46) = (   0.5625000   0.3125000   0.8125000  )
        47           Si  tau(  47) = (   0.0625000   0.8125000   0.8125000  )
        48           Si  tau(  48) = (   0.5625000   0.8125000   0.8125000  )
        49           Si  tau(  49) = (   0.3125000   0.0625000   0.3125000  )
        50           Si  tau(  50) = (   0.8125000   0.0625000   0.3125000  )
        51           Si  tau(  51) = (   0.3125000   0.5625000   0.3125000  )
        52           Si  tau(  52) = (   0.8125000   0.5625000   0.3125000  )
        53           Si  tau(  53) = (   0.3125000   0.0625000   0.8125000  )
        54           Si  tau(  54) = (   0.8125000   0.0625000   0.8125000  )
        55           Si  tau(  55) = (   0.3125000   0.5625000   0.8125000  )
        56           Si  tau(  56) = (   0.8125000   0.5625000   0.8125000  )
        57           Si  tau(  57) = (   0.3125000   0.3125000   0.0625000  )
        58           Si  tau(  58) = (   0.8125000   0.3125000   0.0625000  )
        59           Si  tau(  59) = (   0.3125000   0.8125000   0.0625000  )
        60           Si  tau(  60) = (   0.8125000   0.8125000   0.0625000  )
        61           Si  tau(  61) = (   0.3125000   0.3125000   0.5625000  )
        62           Si  tau(  62) = (   0.8125000   0.3125000   0.5625000  )
        63           Si  tau(  63) = (   0.3125000   0.8125000   0.5625000  )
        64           Si  tau(  64) = (   0.8125000   0.8125000   0.5625000  )

     number of k points=     4  gaussian smearing, width (Ry)=  0.0100
                       cart. coord. in units 2pi/alat
        k(    1) = (   0.2500000   0.2500000   0.2500000), wk =   0.5000000
        k(    2) = (  -0.2500000  -0.2500000   0.2500000), wk =   0.5000000
        k(    3) = (  -0.2500000   0.2500000  -0.2500000), wk =   0.5000000
        k(    4) = (   0.2500000  -0.2500000  -0.2500000), wk =   0.5000000

     Dense  grid:   421349 G-vectors     FFT dimensions: (  96,  96,  96)

     Largest allocated arrays     est. size (Mb)     dimensions
        Kohn-Sham Wavefunctions         7.73 Mb     (    3289,  154)
        NL pseudopotentials            25.70 Mb     (    3289,  512)
        Each V/rho on FFT grid          0.84 Mb     (   55296)
        Each G-vector array             0.20 Mb     (   26336)
        G-vector shells                 0.01 Mb     (    1719)
     Largest temporary arrays     est. size (Mb)     dimensions
        Auxiliary wavefunctions        30.91 Mb     (    3289,  616)
        Each subspace H/S matrix        1.45 Mb     (     308,  308)
        Each <psi_i|beta_j> matrix      1.20 Mb     (     512,  154)
        Arrays for rho mixing           6.75 Mb     (   55296,    8)

     Check: negative/imaginary core charge=   -0.000001    0.000000

     Initial potential from superposition of free atoms

     starting charge  255.96421, renormalised to  256.00000
     Starting wfc are  256 randomized atomic wfcs
     Checking if some PAW data can be deallocated... 

     total cpu time spent up to now is       12.4 secs

     per-process dynamical memory:   114.8 Mb

     Self-consistent Calculation

     iteration #  1     ecut=    50.00 Ry     beta=0.70
     Davidson diagonalization with overlap
     ethr =  1.00E-02,  avg # of iterations =  3.0

     Threshold (ethr) on eigenvalues was too large:
     Diagonalizing with lowered threshold

     Davidson diagonalization with overlap
     ethr =  7.00E-04,  avg # of iterations =  1.0

     total cpu time spent up to now is       50.6 secs

     total energy              =   -2990.45692158 Ry
     Harris-Foulkes estimate   =   -2990.87680947 Ry
     estimated scf accuracy    <       1.77323338 Ry

     iteration #  2     ecut=    50.00 Ry     beta=0.70
     Davidson diagonalization with overlap
     ethr =  6.93E-04,  avg # of iterations =  1.0

     total cpu time spent up to now is       63.9 secs

     total energy              =   -2990.52358775 Ry
     Harris-Foulkes estimate   =   -2990.52746952 Ry
     estimated scf accuracy    <       0.07632479 Ry

     iteration #  3     ecut=    50.00 Ry     beta=0.70
     Davidson diagonalization with overlap
     ethr =  2.98E-05,  avg # of iterations = 10.5

     total cpu time spent up to now is       92.8 secs

     total energy              =   -2990.53055733 Ry
     Harris-Foulkes estimate   =   -2990.53135401 Ry
     estimated scf accuracy    <       0.00197078 Ry

     iteration #  4     ecut=    50.00 Ry     beta=0.70
     Davidson diagonalization with overlap
     ethr =  7.70E-07,  avg # of iterations =  6.5

     total cpu time spent up to now is      128.9 secs

     total energy              =   -2990.53034305 Ry
     Harris-Foulkes estimate   =   -2990.53273779 Ry
     estimated scf accuracy    <       0.00757786 Ry

     iteration #  5     ecut=    50.00 Ry     beta=0.70
     Davidson diagonalization with overlap
     ethr =  7.70E-07,  avg # of iterations =  5.0

     total cpu time spent up to now is      153.1 secs

     total energy              =   -2990.53146709 Ry
     Harris-Foulkes estimate   =   -2990.53158701 Ry
     estimated scf accuracy    <       0.00034207 Ry

     iteration #  6     ecut=    50.00 Ry     beta=0.70
     Davidson diagonalization with overlap
     ethr =  1.34E-07,  avg # of iterations =  2.0

     total cpu time spent up to now is      169.4 secs

     total energy              =   -2990.53152795 Ry
     Harris-Foulkes estimate   =   -2990.53154505 Ry
     estimated scf accuracy    <       0.00004848 Ry

     iteration #  7     ecut=    50.00 Ry     beta=0.70
     Davidson diagonalization with overlap
     ethr =  1.89E-08,  avg # of iterations =  2.5

     total cpu time spent up to now is      186.9 secs

     total energy              =   -2990.53153691 Ry
     Harris-Foulkes estimate   =   -2990.53153872 Ry
     estimated scf accuracy    <       0.00000411 Ry

     iteration #  8     ecut=    50.00 Ry     beta=0.70
     Davidson diagonalization with overlap
     ethr =  1.60E-09,  avg # of iterations =  3.0

     total cpu time spent up to now is      207.5 secs

     total energy              =   -2990.53153806 Ry
     Harris-Foulkes estimate   =   -2990.53153827 Ry
     estimated scf accuracy    <       0.00000048 Ry

     iteration #  9     ecut=    50.00 Ry     beta=0.70
     Davidson diagonalization with overlap
     ethr =  1.89E-10,  avg # of iterations =  3.0

     total cpu time spent up to now is      225.8 secs

     total energy              =   -2990.53153808 Ry
     Harris-Foulkes estimate   =   -2990.53153818 Ry
     estimated scf accuracy    <       0.00000018 Ry

     iteration # 10     ecut=    50.00 Ry     beta=0.70
     Davidson diagonalization with overlap
     ethr =  7.17E-11,  avg # of iterations =  2.8

     total cpu time spent up to now is      242.3 secs

     total energy              =   -2990.53153806 Ry
     Harris-Foulkes estimate   =   -2990.53153812 Ry
     estimated scf accuracy    <       0.00000006 Ry

     iteration # 11     ecut=    50.00 Ry     beta=0.70
     Davidson diagonalization with overlap
     ethr =  2.32E-11,  avg # of iterations =  2.0

     total cpu time spent up to now is      258.8 secs

     total energy              =   -2990.53153808 Ry
     Harris-Foulkes estimate   =   -2990.53153807 Ry
     estimated scf accuracy    <          1.8E-09 Ry

     iteration # 12     ecut=    50.00 Ry     beta=0.70
     Davidson diagonalization with overlap
     ethr =  7.11E-13,  avg # of iterations =  3.0

     total cpu time spent up to now is      283.8 secs

     total energy              =   -2990.53153808 Ry
     Harris-Foulkes estimate   =   -2990.53153808 Ry
     estimated scf accuracy    <          1.6E-09 Ry

     iteration # 13     ecut=    50.00 Ry     beta=0.70
     Davidson diagonalization with overlap
     ethr =  6.38E-13,  avg # of iterations =  3.0

     total cpu time spent up to now is      301.7 secs

     End of self-consistent calculation

          k = 0.2500 0.2500 0.2500 ( 52563 PWs)   bands (ev):

    -5.6251  -5.1006  -5.0963  -5.0922  -4.6009  -4.5967  -4.5927  -4.1632
    -4.0679  -4.0633  -4.0591  -3.6568  -3.6500  -3.6471  -3.6452  -3.6442
    -3.6390  -3.4599  -3.4548  -3.4495  -2.9635  -2.9585  -2.9538  -2.5945
    -2.5891  -2.5842  -2.4297  -2.4235  -2.4212  -2.4192  -2.4179  -2.4130
    -0.8864  -0.8820  -0.8782  -0.8766  -0.8750  -0.8717  -0.7848  -0.7806
    -0.7758  -0.6657  -0.6624  -0.6585  -0.5831  -0.5762  -0.5688   0.1263
     0.2029   0.2064   0.2098   0.2127   0.2146   0.2181   1.0799   1.0854
     1.0908   1.4160   1.4183   1.4206   2.0252   2.0256   2.0287   2.0302
     2.0314   2.0332   2.0857   2.0883   2.0914   2.6377   2.6401   2.6424
     2.7366   2.7390   2.7430   2.7442   2.7467   2.7482   2.7934   2.7970
     2.8001   3.1022   3.1051   3.1062   3.1088   3.1110   3.1120   3.3693
     3.3716   3.3736   3.3840   3.3871   3.3883   3.7305   3.7346   3.7382
     3.7516   3.7567   3.7618   3.8367   3.8396   3.8423   4.1052   4.1112
     4.1143   4.1148   4.1172   4.1224   4.1506   4.1540   4.1570   4.4131
     4.4684   4.4710   4.4735   4.7113   4.7145   4.7178   4.7732   4.7787
     4.7849   4.9363   4.9363   5.2393   5.2436   5.2480   5.7239   5.7240
     6.9322   6.9363   6.9402   7.3719   7.3768   7.3815   7.5987   7.8579
     7.8619   7.8656   7.9870   7.9917   7.9964   8.1472   8.1513   8.1547
     8.1663   8.1694   8.1726   8.3958   8.3983   8.4015   8.4046   8.4061
     8.4076   8.4484

          k =-0.2500-0.2500 0.2500 ( 52563 PWs)   bands (ev):

    -5.6251  -5.0991  -5.0963  -5.0937  -4.5994  -4.5968  -4.5941  -4.1632
    -4.0659  -4.0633  -4.0608  -3.6564  -3.6494  -3.6475  -3.6455  -3.6448
    -3.6388  -3.4599  -3.4549  -3.4495  -2.9613  -2.9585  -2.9557  -2.5945
    -2.5891  -2.5842  -2.4296  -2.4231  -2.4216  -2.4190  -2.4180  -2.4132
    -0.8862  -0.8817  -0.8787  -0.8765  -0.8753  -0.8716  -0.7848  -0.7806
    -0.7759  -0.6657  -0.6621  -0.6585  -0.5813  -0.5762  -0.5708   0.1262
     0.2037   0.2066   0.2101   0.2115   0.2145   0.2182   1.0803   1.0854
     1.0903   1.4168   1.4184   1.4198   2.0251   2.0271   2.0283   2.0298
     2.0321   2.0325   2.0865   2.0881   2.0900   2.6377   2.6400   2.6424
     2.7378   2.7396   2.7429   2.7444   2.7462   2.7483   2.7942   2.7963
     2.7987   3.1031   3.1046   3.1066   3.1081   3.1101   3.1128   3.3696
     3.3716   3.3733   3.3849   3.3866   3.3879   3.7309   3.7347   3.7375
     3.7517   3.7568   3.7616   3.8375   3.8395   3.8418   4.1053   4.1114
     4.1141   4.1149   4.1167   4.1228   4.1514   4.1534   4.1565   4.4131
     4.4685   4.4709   4.4735   4.7123   4.7145   4.7169   4.7744   4.7787
     4.7836   4.9362   4.9364   5.2406   5.2434   5.2466   5.7239   5.7241
     6.9322   6.9363   6.9402   7.3727   7.3768   7.3807   7.5987   7.8586
     7.8619   7.8649   7.9869   7.9916   7.9964   8.1487   8.1516   8.1541
     8.1659   8.1692   8.1723   8.3951   8.3979   8.4025   8.4036   8.4059
     8.4087   8.4484

          k =-0.2500 0.2500-0.2500 ( 52563 PWs)   bands (ev):

    -5.6251  -5.1006  -5.0963  -5.0922  -4.6009  -4.5967  -4.5927  -4.1632
    -4.0679  -4.0633  -4.0591  -3.6568  -3.6500  -3.6471  -3.6452  -3.6442
    -3.6390  -3.4599  -3.4548  -3.4495  -2.9635  -2.9585  -2.9538  -2.5945
    -2.5891  -2.5842  -2.4297  -2.4235  -2.4212  -2.4192  -2.4179  -2.4130
    -0.8864  -0.8820  -0.8782  -0.8766  -0.8750  -0.8717  -0.7848  -0.7806
    -0.7758  -0.6657  -0.6624  -0.6585  -0.5831  -0.5762  -0.5688   0.1263
     0.2029   0.2064   0.2098   0.2127   0.2146   0.2181   1.0799   1.0854
     1.0908   1.4160   1.4183   1.4206   2.0252   2.0256   2.0287   2.0302
     2.0314   2.0332   2.0857   2.0883   2.0914   2.6377   2.6401   2.6424
     2.7366   2.7390   2.7430   2.7442   2.7467   2.7482   2.7934   2.7970
     2.8001   3.1022   3.1051   3.1062   3.1088   3.1110   3.1120   3.3693
     3.3716   3.3736   3.3840   3.3871   3.3883   3.7305   3.7346   3.7382
     3.7516   3.7567   3.7618   3.8367   3.8396   3.8423   4.1052   4.1112
     4.1143   4.1148   4.1172   4.1224   4.1506   4.1540   4.1570   4.4131
     4.4684   4.4710   4.4735   4.7113   4.7145   4.7177   4.7732   4.7787
     4.7849   4.9363   4.9363   5.2393   5.2436   5.2480   5.7239   5.7240
     6.9322   6.9363   6.9402   7.3719   7.3768   7.3815   7.5987   7.8579
     7.8619   7.8656   7.9870   7.9917   7.9964   8.1472   8.1513   8.1547
     8.1663   8.1694   8.1726   8.3958   8.3983   8.4015   8.4046   8.4061
     8.4076   8.4484

          k = 0.2500-0.2500-0.2500 ( 52563 PWs)   bands (ev):

    -5.6251  -5.0991  -5.0963  -5.0937  -4.5994  -4.5968  -4.5941  -4.1632
    -4.0659  -4.0633  -4.0608  -3.6564  -3.6494  -3.6475  -3.6455  -3.6448
    -3.6388  -3.4599  -3.4549  -3.4495  -2.9613  -2.9585  -2.9557  -2.5945
    -2.5891  -2.5842  -2.4296  -2.4231  -2.4216  -2.4190  -2.4180  -2.4132
    -0.8862  -0.8817  -0.8787  -0.8765  -0.8753  -0.8716  -0.7848  -0.7806
    -0.7759  -0.6657  -0.6621  -0.6585  -0.5813  -0.5762  -0.5708   0.1262
     0.2037   0.2066   0.2101   0.2115   0.2145   0.2182   1.0803   1.0854
     1.0903   1.4168   1.4184   1.4198   2.0251   2.0271   2.0283   2.0298
     2.0321   2.0325   2.0865   2.0881   2.0900   2.6377   2.6400   2.6424
     2.7378   2.7396   2.7429   2.7444   2.7462   2.7483   2.7942   2.7963
     2.7987   3.1031   3.1046   3.1066   3.1081   3.1101   3.1128   3.3696
     3.3716   3.3733   3.3849   3.3866   3.3879   3.7309   3.7347   3.7375
     3.7517   3.7568   3.7616   3.8375   3.8395   3.8418   4.1053   4.1114
     4.1141   4.1149   4.1167   4.1228   4.1514   4.1534   4.1565   4.4131
     4.4685   4.4709   4.4735   4.7123   4.7145   4.7169   4.7744   4.7787
     4.7836   4.9362   4.9364   5.2406   5.2434   5.2466   5.7239   5.7241
     6.9322   6.9363   6.9402   7.3727   7.3768   7.3807   7.5987   7.8586
     7.8619   7.8649   7.9869   7.9916   7.9964   8.1487   8.1516   8.1541
     8.1659   8.1692   8.1723   8.3951   8.3979   8.4025   8.4035   8.4059
     8.4087   8.4484

     the Fermi energy is     6.3277 ev

!    total energy              =   -2990.53153808 Ry
     Harris-Foulkes estimate   =   -2990.53153808 Ry
     estimated scf accuracy    <          5.2E-10 Ry

     total all-electron energy =    -37124.667091 Ry

     The total energy is the sum of the following terms:

     one-electron contribution =     178.60617008 Ry
     hartree contribution      =      35.70161888 Ry
     xc contribution           =    -391.44200000 Ry
     ewald contribution        =    -534.00602048 Ry
     one-center paw contrib.   =   -2279.39130655 Ry
     smearing contrib. (-TS)   =       0.00000000 Ry

     convergence has been achieved in  13 iterations

     Forces acting on atoms (Ry/au):

     atom    1 type  1   force =    -0.01613428   -0.00011116    0.00024033
     atom    2 type  1   force =    -0.00020915   -0.00011083   -0.00022705
     atom    3 type  1   force =     0.00001212   -0.00000842   -0.00007606
     atom    4 type  1   force =    -0.00004968   -0.00000921    0.00007736
     atom    5 type  1   force =    -0.00018349    0.00011312   -0.00023259
     atom    6 type  1   force =    -0.00023836    0.00010965    0.00022732
     atom    7 type  1   force =    -0.00051812    0.00000993    0.00007608
     atom    8 type  1   force =    -0.00001767    0.00001002   -0.00007765
     atom    9 type  1   force =    -0.00076716   -0.00012136    0.00022832
     atom   10 type  1   force =    -0.00023148    0.00023721    0.00011891
     atom   11 type  1   force =    -0.00076170    0.00034277   -0.00022384
     atom   12 type  1   force =    -0.00023143   -0.00021826   -0.00012025
     atom   13 type  1   force =    -0.00056719   -0.00003400    0.00011886
     atom   14 type  1   force =    -0.00004168   -0.00008646    0.00001959
     atom   15 type  1   force =    -0.00057121   -0.00018938   -0.00012347
     atom   16 type  1   force =    -0.00004266    0.00006742   -0.00001856
     atom   17 type  1   force =     0.00020939   -0.00011099    0.00022706
     atom   18 type  1   force =     0.01613426   -0.00011083   -0.00024035
     atom   19 type  1   force =     0.00005053   -0.00000890   -0.00007769
     atom   20 type  1   force =    -0.00001302   -0.00000900    0.00007645
     atom   21 type  1   force =     0.00023843    0.00010925   -0.00022719
     atom   22 type  1   force =     0.00018316    0.00011322    0.00023241
     atom   23 type  1   force =     0.00001896    0.00001019    0.00007761
     atom   24 type  1   force =     0.00051688    0.00000999   -0.00007625
     atom   25 type  1   force =     0.00023243    0.00023701   -0.00011844
     atom   26 type  1   force =     0.00076640   -0.00012112   -0.00022839
     atom   27 type  1   force =     0.00023152   -0.00021778    0.00012014
     atom   28 type  1   force =     0.00076150    0.00034235    0.00022383
     atom   29 type  1   force =     0.00004248   -0.00008676   -0.00001945
     atom   30 type  1   force =     0.00056631   -0.00003334   -0.00011924
     atom   31 type  1   force =     0.00004326    0.00006788    0.00001824
     atom   32 type  1   force =     0.00057074   -0.00018984    0.00012399
     atom   33 type  1   force =    -0.00004702    0.00005697    0.00000394
     atom   34 type  1   force =     0.00031584    0.00006694   -0.00002231
     atom   35 type  1   force =     0.00003877    0.00006448   -0.00001364
     atom   36 type  1   force =    -0.00398988    0.00275479   -0.00266639
     atom   37 type  1   force =     0.00004854    0.00005699   -0.00000385
     atom   38 type  1   force =    -0.00031741    0.00006688    0.00002242
     atom   39 type  1   force =    -0.00003870    0.00006456    0.00001370
     atom   40 type  1   force =     0.00398975    0.00275458    0.00266627
     atom   41 type  1   force =     0.00000028   -0.00007681    0.00000001
     atom   42 type  1   force =    -0.00000029   -0.00541175    0.00000012
     atom   43 type  1   force =     0.00000029   -0.00004997    0.00000025
     atom   44 type  1   force =    -0.00000034   -0.00007680   -0.00000021
     atom   45 type  1   force =     0.00000031   -0.00005392   -0.00000021
     atom   46 type  1   force =    -0.00000034   -0.00010096    0.00000012
     atom   47 type  1   force =     0.00000072   -0.00006205   -0.00000003
     atom   48 type  1   force =    -0.00000069   -0.00005513   -0.00000007
     atom   49 type  1   force =    -0.00008592   -0.00006356    0.00002237
     atom   50 type  1   force =     0.00008613   -0.00006366   -0.00002208
     atom   51 type  1   force =     0.00382514   -0.00252002    0.00244314
     atom   52 type  1   force =    -0.00382520   -0.00252020   -0.00244324
     atom   53 type  1   force =     0.00027453   -0.00005861   -0.00000366
     atom   54 type  1   force =    -0.00027454   -0.00005804    0.00000319
     atom   55 type  1   force =    -0.00008693   -0.00008050    0.00001065
     atom   56 type  1   force =     0.00008711   -0.00008077   -0.00001041
     atom   57 type  1   force =    -0.00004591    0.00008878    0.00000027
     atom   58 type  1   force =    -0.00378524    0.00251014    0.00245381
     atom   59 type  1   force =     0.00022508    0.00005537    0.00000113
     atom   60 type  1   force =     0.00003643    0.00006783    0.00002040
     atom   61 type  1   force =     0.00378509    0.00250914   -0.00245386
     atom   62 type  1   force =     0.00004596    0.00008927   -0.00000034
     atom   63 type  1   force =    -0.00003670    0.00006888   -0.00002001
     atom   64 type  1   force =    -0.00022495    0.00005478   -0.00000151

     Total force =     0.026928     Total SCF correction =     0.000045

     Writing output data file pwscf.save
 
     init_run     :      8.71s CPU      9.02s WALL (       1 calls)
     electrons    :    282.78s CPU    290.04s WALL (       1 calls)
     forces       :      4.12s CPU      4.17s WALL (       1 calls)

     Called by init_run:
     wfcinit      :      8.11s CPU      8.26s WALL (       1 calls)
     potinit      :      0.25s CPU      0.26s WALL (       1 calls)

     Called by electrons:
     c_bands      :    252.74s CPU    258.93s WALL (      14 calls)
     sum_band     :     23.91s CPU     24.17s WALL (      14 calls)
     v_of_rho     :      0.68s CPU      0.68s WALL (      14 calls)
     newd         :      0.97s CPU      1.02s WALL (      14 calls)
     PAW_pot      :      2.30s CPU      2.31s WALL (      14 calls)
     mix_rho      :      0.31s CPU      0.32s WALL (      14 calls)

     Called by c_bands:
     init_us_2    :      2.60s CPU      2.64s WALL (     120 calls)
     cegterg      :    247.38s CPU    251.68s WALL (      56 calls)

     Called by sum_band:
     sum_band:bec :      0.05s CPU      0.05s WALL (      56 calls)
     addusdens    :      0.97s CPU      1.09s WALL (      14 calls)

     Called by *egterg:
     h_psi        :    117.01s CPU    117.65s WALL (     253 calls)
     s_psi        :     30.29s CPU     30.42s WALL (     253 calls)
     g_psi        :      1.06s CPU      1.06s WALL (     193 calls)
     cdiaghg      :     37.46s CPU     37.58s WALL (     245 calls)

     Called by h_psi:
     add_vuspsi   :     30.45s CPU     30.58s WALL (     253 calls)

     General routines
     calbec       :     46.74s CPU     46.96s WALL (     325 calls)
     fft          :      0.41s CPU      0.41s WALL (     195 calls)
     fftw         :     57.24s CPU     57.56s WALL (   57080 calls)
     davcio       :      0.00s CPU      0.01s WALL (       4 calls)
 
     Parallel routines
     fft_scatter  :     13.25s CPU     13.09s WALL (   57275 calls)
 
     PWSCF        :  4m56.08s CPU     5m32.28s WALL

 
   This run was terminated on:  13:43:15   3Feb2016            

=------------------------------------------------------------------------------=
   JOB DONE.
=------------------------------------------------------------------------------=
