<?xml version="1.0" encoding="ISO-8859-1"?>
<modeling>
 <generator>
  <i name="program" type="string">vasp </i>
  <i name="version" type="string">5.4.1  </i>
  <i name="subversion" type="string">05Feb16 (build Mar 26 2016 11:58:25) complex                          parallel </i>
  <i name="platform" type="string">IFC91_ompi </i>
  <i name="date" type="string">2017 03 12 </i>
  <i name="time" type="string">12:17:26 </i>
 </generator>
 <incar>
  <i type="string" name="PREC">accurate</i>
  <i type="int" name="IALGO">    38</i>
  <i type="logical" name="ADDGRID"> T  </i>
  <i type="int" name="NELMIN">     5</i>
  <i type="int" name="IBRION">    -1</i>
  <i name="EDIFF">      0.00000001</i>
  <i name="ENCUT">    300.00000000</i>
  <i type="logical" name="LREAL"> F  </i>
  <i type="int" name="ISMEAR">     0</i>
  <i name="SIGMA">      0.05000000</i>
  <i type="logical" name="LWAVE"> F  </i>
  <i type="logical" name="LCHARG"> F  </i>
  <v type="int" name="KPOINT_BSE">    -1     0     0     0</v>
 </incar>
 <kpoints>
  <generation param="Monkhorst-Pack">
   <v type="int" name="divisions">       2        2        2 </v>
   <v name="usershift">      0.00000000       0.00000000       0.00000000 </v>
   <v name="genvec1">      0.50000000       0.00000000       0.00000000 </v>
   <v name="genvec2">      0.00000000       0.50000000       0.00000000 </v>
   <v name="genvec3">      0.00000000       0.00000000       0.50000000 </v>
   <v name="shift">      0.50000000       0.50000000       0.50000000 </v>
  </generation>
  <varray name="kpointlist" >
   <v>       0.25000000       0.25000000       0.25000000 </v>
   <v>      -0.25000000       0.25000000       0.25000000 </v>
   <v>       0.25000000      -0.25000000       0.25000000 </v>
  </varray>
  <varray name="weights" >
   <v>       0.25000000 </v>
   <v>       0.25000000 </v>
   <v>       0.50000000 </v>
  </varray>
 </kpoints>
 <parameters>
  <separator name="general" >
   <i type="string" name="SYSTEM">unknown system</i>
   <i type="logical" name="LCOMPAT"> F  </i>
  </separator>
  <separator name="electronic" >
   <i type="string" name="PREC">accura</i>
   <i name="ENMAX">    300.00000000</i>
   <i name="ENAUG">    322.06900000</i>
   <i name="EDIFF">      0.00000001</i>
   <i type="int" name="IALGO">    38</i>
   <i type="int" name="IWAVPR">    10</i>
   <i type="int" name="NBANDS">   164</i>
   <i name="NELECT">    256.00000000</i>
   <i type="int" name="TURBO">     0</i>
   <i type="int" name="IRESTART">     0</i>
   <i type="int" name="NREBOOT">     0</i>
   <i type="int" name="NMIN">     0</i>
   <i name="EREF">      0.00000000</i>
   <separator name="electronic smearing" >
    <i type="int" name="ISMEAR">     0</i>
    <i name="SIGMA">      0.05000000</i>
    <i name="KSPACING">      0.50000000</i>
    <i type="logical" name="KGAMMA"> T  </i>
   </separator>
   <separator name="electronic projectors" >
    <i type="logical" name="LREAL"> F  </i>
    <v name="ROPT">      0.00000000</v>
    <i type="int" name="LMAXPAW">  -100</i>
    <i type="int" name="LMAXMIX">     2</i>
    <i type="logical" name="NLSPLINE"> F  </i>
   </separator>
   <separator name="electronic startup" >
    <i type="int" name="ISTART">     0</i>
    <i type="int" name="ICHARG">     2</i>
    <i type="int" name="INIWAV">     1</i>
   </separator>
   <separator name="electronic spin" >
    <i type="int" name="ISPIN">     1</i>
    <i type="logical" name="LNONCOLLINEAR"> F  </i>
    <v name="MAGMOM">      1.00000000      1.00000000      1.00000000      1.00000000      1.00000000      1.00000000      1.00000000      1.00000000      1.00000000      1.00000000      1.00000000      1.00000000      1.00000000      1.00000000      1.00000000      1.00000000      1.00000000      1.00000000      1.00000000      1.00000000
      1.00000000      1.00000000      1.00000000      1.00000000      1.00000000      1.00000000      1.00000000      1.00000000      1.00000000      1.00000000      1.00000000      1.00000000      1.00000000      1.00000000      1.00000000      1.00000000      1.00000000      1.00000000      1.00000000      1.00000000
      1.00000000      1.00000000      1.00000000      1.00000000      1.00000000      1.00000000      1.00000000      1.00000000      1.00000000      1.00000000      1.00000000      1.00000000      1.00000000      1.00000000      1.00000000      1.00000000      1.00000000      1.00000000      1.00000000      1.00000000
      1.00000000      1.00000000      1.00000000      1.00000000</v>
    <i name="NUPDOWN">     -1.00000000</i>
    <i type="logical" name="LSORBIT"> F  </i>
    <v name="SAXIS">      0.00000000      0.00000000      1.00000000</v>
    <i type="logical" name="LSPIRAL"> F  </i>
    <v name="QSPIRAL">      0.00000000      0.00000000      0.00000000</v>
    <i type="logical" name="LZEROZ"> F  </i>
   </separator>
   <separator name="electronic exchange-correlation" >
    <i type="logical" name="LASPH"> F  </i>
    <i type="logical" name="LMETAGGA"> F  </i>
   </separator>
   <separator name="electronic convergence" >
    <i type="int" name="NELM">    60</i>
    <i type="int" name="NELMDL">    -5</i>
    <i type="int" name="NELMIN">     5</i>
    <i name="ENINI">    300.00000000</i>
    <separator name="electronic convergence detail" >
     <i type="logical" name="LDIAG"> T  </i>
     <i type="logical" name="LSUBROT"> F  </i>
     <i name="WEIMIN">      0.00000000</i>
     <i name="EBREAK">      0.00000000</i>
     <i name="DEPER">      0.30000000</i>
     <i type="int" name="NRMM">     4</i>
     <i name="TIME">      0.40000000</i>
    </separator>
   </separator>
   <separator name="electronic mixer" >
    <i name="AMIX">      0.40000000</i>
    <i name="BMIX">      1.00000000</i>
    <i name="AMIN">      0.10000000</i>
    <i name="AMIX_MAG">      1.60000000</i>
    <i name="BMIX_MAG">      1.00000000</i>
    <separator name="electronic mixer details" >
     <i type="int" name="IMIX">     4</i>
     <i type="logical" name="MIXFIRST"> F  </i>
     <i type="int" name="MAXMIX">   -45</i>
     <i name="WC">    100.00000000</i>
     <i type="int" name="INIMIX">     1</i>
     <i type="int" name="MIXPRE">     1</i>
     <i type="int" name="MREMOVE">     5</i>
    </separator>
   </separator>
   <separator name="electronic dipolcorrection" >
    <i type="logical" name="LDIPOL"> F  </i>
    <i type="logical" name="LMONO"> F  </i>
    <i type="int" name="IDIPOL">     0</i>
    <i name="EPSILON">      1.00000000</i>
    <v name="DIPOL">   -100.00000000   -100.00000000   -100.00000000</v>
    <i name="EFIELD">      0.00000000</i>
   </separator>
  </separator>
  <separator name="grids" >
   <i type="int" name="NGX">    64</i>
   <i type="int" name="NGY">    64</i>
   <i type="int" name="NGZ">    64</i>
   <i type="int" name="NGXF">   128</i>
   <i type="int" name="NGYF">   128</i>
   <i type="int" name="NGZF">   128</i>
   <i type="logical" name="ADDGRID"> T  </i>
  </separator>
  <separator name="ionic" >
   <i type="int" name="NSW">     0</i>
   <i type="int" name="IBRION">    -1</i>
   <i type="int" name="ISIF">     2</i>
   <i name="PSTRESS">      0.00000000</i>
   <i name="EDIFFG">      0.00000010</i>
   <i type="int" name="NFREE">     0</i>
   <i name="POTIM">      0.50000000</i>
   <i name="SMASS">     -3.00000000</i>
   <i name="SCALEE">      1.00000000</i>
  </separator>
  <separator name="ionic md" >
   <i name="TEBEG">      0.00010000</i>
   <i name="TEEND">      0.00010000</i>
   <i type="int" name="NBLOCK">     1</i>
   <i type="int" name="KBLOCK">     1</i>
   <i type="int" name="NPACO">   256</i>
   <i name="APACO">     16.00000000</i>
  </separator>
  <separator name="symmetry" >
   <i type="int" name="ISYM">     2</i>
   <i name="SYMPREC">      0.00001000</i>
  </separator>
  <separator name="dos" >
   <i type="logical" name="LORBIT"> F  </i>
   <v name="RWIGS">     -1.00000000</v>
   <i type="int" name="NEDOS">   301</i>
   <i name="EMIN">     10.00000000</i>
   <i name="EMAX">    -10.00000000</i>
   <i name="EFERMI">      0.00000000</i>
  </separator>
  <separator name="writing" >
   <i type="int" name="NWRITE">     2</i>
   <i type="logical" name="LWAVE"> F  </i>
   <i type="logical" name="LCHARG"> F  </i>
   <i type="logical" name="LPARD"> F  </i>
   <i type="logical" name="LVTOT"> F  </i>
   <i type="logical" name="LVHAR"> F  </i>
   <i type="logical" name="LELF"> F  </i>
   <i type="logical" name="LOPTICS"> F  </i>
   <v name="STM">      0.00000000      0.00000000      0.00000000      0.00000000      0.00000000      0.00000000      0.00000000</v>
  </separator>
  <separator name="performance" >
   <i type="int" name="NPAR">     4</i>
   <i type="int" name="NSIM">     4</i>
   <i type="int" name="NBLK">    -1</i>
   <i type="logical" name="LPLANE"> T  </i>
   <i type="logical" name="LSCALAPACK"> T  </i>
   <i type="logical" name="LSCAAWARE"> F  </i>
   <i type="logical" name="LSCALU"> F  </i>
   <i type="logical" name="LASYNC"> F  </i>
   <i type="logical" name="LORBITALREAL"> F  </i>
  </separator>
  <separator name="miscellaneous" >
   <i type="int" name="IDIOT">     3</i>
   <i type="logical" name="LMUSIC"> F  </i>
   <v name="POMASS">     28.08500000</v>
   <v name="DARWINR">      0.00000000</v>
   <v name="DARWINV">      1.00000000</v>
   <i type="logical" name="LCORR"> T  </i>
  </separator>
  <i type="logical" name="GGA_COMPAT"> T  </i>
  <i type="logical" name="LBERRY"> F  </i>
  <i type="int" name="ICORELEVEL">     0</i>
  <i type="logical" name="LDAU"> F  </i>
  <i type="int" name="I_CONSTRAINED_M">     0</i>
  <separator name="electronic exchange-correlation" >
   <i type="string" name="GGA">--</i>
   <i type="int" name="VOSKOWN">     0</i>
   <i type="logical" name="LHFCALC"> F  </i>
   <i type="string" name="PRECFOCK"></i>
   <i type="logical" name="LSYMGRAD"> F  </i>
   <i type="logical" name="LHFONE"> F  </i>
   <i type="logical" name="LRHFCALC"> F  </i>
   <i type="logical" name="LTHOMAS"> F  </i>
   <i type="logical" name="LMODELHF"> F  </i>
   <i name="ENCUT4O">     -1.00000000</i>
   <i type="int" name="EXXOEP">     0</i>
   <i type="int" name="FOURORBIT">     0</i>
   <i name="AEXX">      0.00000000</i>
   <i name="HFALPHA">      0.00000000</i>
   <i name="MCALPHA">      0.00000000</i>
   <i name="ALDAX">      1.00000000</i>
   <i name="AGGAX">      1.00000000</i>
   <i name="ALDAC">      1.00000000</i>
   <i name="AGGAC">      1.00000000</i>
   <i type="int" name="NKREDX">     1</i>
   <i type="int" name="NKREDY">     1</i>
   <i type="int" name="NKREDZ">     1</i>
   <i type="logical" name="SHIFTRED"> F  </i>
   <i type="logical" name="ODDONLY"> F  </i>
   <i type="logical" name="EVENONLY"> F  </i>
   <i type="int" name="LMAXFOCK">     0</i>
   <i type="int" name="NMAXFOCKAE">     0</i>
   <i type="logical" name="LFOCKAEDFT"> F  </i>
   <i name="HFSCREEN">      0.00000000</i>
   <i name="HFSCREENC">      0.00000000</i>
   <i type="int" name="NBANDSGWLOW">     0</i>
  </separator>
  <separator name="vdW DFT" >
   <i type="logical" name="LUSE_VDW"> F  </i>
   <i name="Zab_VDW">     -0.84910000</i>
   <i name="PARAM1">      0.12340000</i>
   <i name="PARAM2">      1.00000000</i>
   <i name="PARAM3">      0.00000000</i>
  </separator>
  <separator name="model GW" >
   <i type="int" name="MODEL_GW">     0</i>
   <i name="MODEL_EPS0">     12.24990743</i>
   <i name="MODEL_ALPHA">      1.00000000</i>
  </separator>
  <separator name="linear response parameters" >
   <i type="logical" name="LEPSILON"> F  </i>
   <i type="logical" name="LRPA"> F  </i>
   <i type="logical" name="LNABLA"> F  </i>
   <i type="logical" name="LVEL"> F  </i>
   <i type="int" name="KINTER">     0</i>
   <i name="CSHIFT">      0.10000000</i>
   <i name="OMEGAMAX">     -1.00000000</i>
   <i name="DEG_THRESHOLD">      0.00200000</i>
  </separator>
  <separator name="orbital magnetization" >
   <i type="logical" name="NUCIND"> F  </i>
   <v name="MAGPOS">      0.00000000      0.00000000      0.00000000</v>
   <i type="logical" name="LNICSALL"> T  </i>
   <i type="logical" name="ORBITALMAG"> F  </i>
   <i type="logical" name="LMAGBLOCH"> F  </i>
   <i type="logical" name="LCHIMAG"> F  </i>
   <i type="logical" name="LGAUGE"> T  </i>
   <i type="int" name="MAGATOM">     0</i>
   <v name="MAGDIPOL">      0.00000000      0.00000000      0.00000000</v>
   <v name="AVECCONST">      0.00000000      0.00000000      0.00000000</v>
  </separator>
  <separator name="response functions" >
   <i type="logical" name="LADDER"> F  </i>
   <i type="logical" name="LFXC"> F  </i>
   <i type="logical" name="LHARTREE"> T  </i>
   <i type="int" name="IBSE">     0</i>
   <v type="int" name="KPOINT">    -1     0     0     0</v>
   <i type="logical" name="LTCTE"> F  </i>
   <i type="logical" name="LTETE"> F  </i>
   <i type="logical" name="LTRIPLET"> F  </i>
   <i type="logical" name="LFXCEPS"> F  </i>
   <i type="logical" name="LFXHEG"> F  </i>
   <i type="int" name="NATURALO">     0</i>
   <i type="logical" name="L2ORDER"> F  </i>
   <i type="logical" name="LUSEW"> F  </i>
   <i name="ENCUTGW">     -2.00000000</i>
   <i name="ENCUTGWSOFT">     -2.00000000</i>
   <i name="ENCUTLF">     -1.00000000</i>
   <i type="int" name="LMAXMP2">    -1</i>
   <i name="SCISSOR">      0.00000000</i>
   <i type="int" name="NOMEGA">     0</i>
   <i type="int" name="NOMEGAR">     0</i>
   <i type="int" name="NBANDSGW">    -1</i>
   <i type="int" name="NBANDSO">    -1</i>
   <i type="int" name="NBANDSV">    -1</i>
   <i type="int" name="NELM">     1</i>
   <i type="int" name="NELMHF">     1</i>
   <i type="int" name="DIM">     3</i>
   <i type="int" name="ANTIRES">     0</i>
   <i name="OMEGAMAX">    -30.00000000</i>
   <i name="OMEGAMIN">    -30.00000000</i>
   <i name="OMEGATL">   -200.00000000</i>
   <i type="int" name="OMEGAGRID">     0</i>
   <i name="CSHIFT">     -0.10000000</i>
   <i type="logical" name="SELFENERGY"> F  </i>
   <i type="logical" name="LSPECTRAL"> F  </i>
   <i type="logical" name="LSPECTRALGW"> F  </i>
   <i type="logical" name="LSINGLES"> F  </i>
   <i type="logical" name="LFERMIGW"> F  </i>
   <i type="logical" name="ODDONLYGW"> F  </i>
   <i type="logical" name="EVENONLYGW"> F  </i>
   <i type="int" name="NKREDLFX">     1</i>
   <i type="int" name="NKREDLFY">     1</i>
   <i type="int" name="NKREDLFZ">     1</i>
   <i type="int" name="MAXMEM">  1800</i>
   <i type="int" name="TELESCOPE">     0</i>
   <i type="int" name="TAUPAR">     1</i>
   <i type="int" name="OMEGAPAR">    -1</i>
   <i name="LAMBDA">      1.00000000</i>
  </separator>
  <separator name="External order field" >
   <i name="OFIELD_KAPPA">      0.00000000</i>
   <v name="OFIELD_K">      0.00000000      0.00000000      0.00000000</v>
   <i name="OFIELD_Q6_NEAR">      0.00000000</i>
   <i name="OFIELD_Q6_FAR">      0.00000000</i>
   <i name="OFIELD_A">      0.00000000</i>
  </separator>
 </parameters>
 <atominfo>
  <atoms>      64 </atoms>
  <types>       1 </types>
  <array name="atoms" >
   <dimension dim="1">ion</dimension>
   <field type="string">element</field>
   <field type="int">atomtype</field>
   <set>
    <rc><c>Si</c><c>   1</c></rc>
    <rc><c>Si</c><c>   1</c></rc>
    <rc><c>Si</c><c>   1</c></rc>
    <rc><c>Si</c><c>   1</c></rc>
    <rc><c>Si</c><c>   1</c></rc>
    <rc><c>Si</c><c>   1</c></rc>
    <rc><c>Si</c><c>   1</c></rc>
    <rc><c>Si</c><c>   1</c></rc>
    <rc><c>Si</c><c>   1</c></rc>
    <rc><c>Si</c><c>   1</c></rc>
    <rc><c>Si</c><c>   1</c></rc>
    <rc><c>Si</c><c>   1</c></rc>
    <rc><c>Si</c><c>   1</c></rc>
    <rc><c>Si</c><c>   1</c></rc>
    <rc><c>Si</c><c>   1</c></rc>
    <rc><c>Si</c><c>   1</c></rc>
    <rc><c>Si</c><c>   1</c></rc>
    <rc><c>Si</c><c>   1</c></rc>
    <rc><c>Si</c><c>   1</c></rc>
    <rc><c>Si</c><c>   1</c></rc>
    <rc><c>Si</c><c>   1</c></rc>
    <rc><c>Si</c><c>   1</c></rc>
    <rc><c>Si</c><c>   1</c></rc>
    <rc><c>Si</c><c>   1</c></rc>
    <rc><c>Si</c><c>   1</c></rc>
    <rc><c>Si</c><c>   1</c></rc>
    <rc><c>Si</c><c>   1</c></rc>
    <rc><c>Si</c><c>   1</c></rc>
    <rc><c>Si</c><c>   1</c></rc>
    <rc><c>Si</c><c>   1</c></rc>
    <rc><c>Si</c><c>   1</c></rc>
    <rc><c>Si</c><c>   1</c></rc>
    <rc><c>Si</c><c>   1</c></rc>
    <rc><c>Si</c><c>   1</c></rc>
    <rc><c>Si</c><c>   1</c></rc>
    <rc><c>Si</c><c>   1</c></rc>
    <rc><c>Si</c><c>   1</c></rc>
    <rc><c>Si</c><c>   1</c></rc>
    <rc><c>Si</c><c>   1</c></rc>
    <rc><c>Si</c><c>   1</c></rc>
    <rc><c>Si</c><c>   1</c></rc>
    <rc><c>Si</c><c>   1</c></rc>
    <rc><c>Si</c><c>   1</c></rc>
    <rc><c>Si</c><c>   1</c></rc>
    <rc><c>Si</c><c>   1</c></rc>
    <rc><c>Si</c><c>   1</c></rc>
    <rc><c>Si</c><c>   1</c></rc>
    <rc><c>Si</c><c>   1</c></rc>
    <rc><c>Si</c><c>   1</c></rc>
    <rc><c>Si</c><c>   1</c></rc>
    <rc><c>Si</c><c>   1</c></rc>
    <rc><c>Si</c><c>   1</c></rc>
    <rc><c>Si</c><c>   1</c></rc>
    <rc><c>Si</c><c>   1</c></rc>
    <rc><c>Si</c><c>   1</c></rc>
    <rc><c>Si</c><c>   1</c></rc>
    <rc><c>Si</c><c>   1</c></rc>
    <rc><c>Si</c><c>   1</c></rc>
    <rc><c>Si</c><c>   1</c></rc>
    <rc><c>Si</c><c>   1</c></rc>
    <rc><c>Si</c><c>   1</c></rc>
    <rc><c>Si</c><c>   1</c></rc>
    <rc><c>Si</c><c>   1</c></rc>
    <rc><c>Si</c><c>   1</c></rc>
   </set>
  </array>
  <array name="atomtypes" >
   <dimension dim="1">type</dimension>
   <field type="int">atomspertype</field>
   <field type="string">element</field>
   <field>mass</field>
   <field>valence</field>
   <field type="string">pseudopotential</field>
   <set>
    <rc><c>  64</c><c>Si</c><c>     28.08500000</c><c>      4.00000000</c><c>  PAW_PBE Si 05Jan2001                  </c></rc>
   </set>
  </array>
 </atominfo>
 <structure name="initialpos" >
  <crystal>
   <varray name="basis" >
    <v>      10.93252578       0.00000000       0.00000000 </v>
    <v>       0.00000000      10.93252578       0.00000000 </v>
    <v>       0.00000000       0.00000000      10.93252578 </v>
   </varray>
   <i name="volume">   1306.65679237 </i>
   <varray name="rec_basis" >
    <v>       0.09147017       0.00000000       0.00000000 </v>
    <v>       0.00000000       0.09147017       0.00000000 </v>
    <v>       0.00000000       0.00000000       0.09147017 </v>
   </varray>
  </crystal>
  <varray name="positions" >
   <v>       0.44024411       0.43750000       0.43750000 </v>
   <v>       0.93750000       0.43750000       0.43750000 </v>
   <v>       0.43750000       0.93750000       0.43750000 </v>
   <v>       0.93750000       0.93750000       0.43750000 </v>
   <v>       0.43750000       0.43750000       0.93750000 </v>
   <v>       0.93750000       0.43750000       0.93750000 </v>
   <v>       0.43750000       0.93750000       0.93750000 </v>
   <v>       0.93750000       0.93750000       0.93750000 </v>
   <v>       0.43750000       0.18750000       0.18750000 </v>
   <v>       0.93750000       0.18750000       0.18750000 </v>
   <v>       0.43750000       0.68750000       0.18750000 </v>
   <v>       0.93750000       0.68750000       0.18750000 </v>
   <v>       0.43750000       0.18750000       0.68750000 </v>
   <v>       0.93750000       0.18750000       0.68750000 </v>
   <v>       0.43750000       0.68750000       0.68750000 </v>
   <v>       0.93750000       0.68750000       0.68750000 </v>
   <v>       0.18750000       0.43750000       0.18750000 </v>
   <v>       0.68750000       0.43750000       0.18750000 </v>
   <v>       0.18750000       0.93750000       0.18750000 </v>
   <v>       0.68750000       0.93750000       0.18750000 </v>
   <v>       0.18750000       0.43750000       0.68750000 </v>
   <v>       0.68750000       0.43750000       0.68750000 </v>
   <v>       0.18750000       0.93750000       0.68750000 </v>
   <v>       0.68750000       0.93750000       0.68750000 </v>
   <v>       0.18750000       0.18750000       0.43750000 </v>
   <v>       0.68750000       0.18750000       0.43750000 </v>
   <v>       0.18750000       0.68750000       0.43750000 </v>
   <v>       0.68750000       0.68750000       0.43750000 </v>
   <v>       0.18750000       0.18750000       0.93750000 </v>
   <v>       0.68750000       0.18750000       0.93750000 </v>
   <v>       0.18750000       0.68750000       0.93750000 </v>
   <v>       0.68750000       0.68750000       0.93750000 </v>
   <v>       0.06250000       0.06250000       0.06250000 </v>
   <v>       0.56250000       0.06250000       0.06250000 </v>
   <v>       0.06250000       0.56250000       0.06250000 </v>
   <v>       0.56250000       0.56250000       0.06250000 </v>
   <v>       0.06250000       0.06250000       0.56250000 </v>
   <v>       0.56250000       0.06250000       0.56250000 </v>
   <v>       0.06250000       0.56250000       0.56250000 </v>
   <v>       0.56524411       0.56250000       0.56250000 </v>
   <v>       0.06250000       0.31250000       0.31250000 </v>
   <v>       0.56250000       0.31250000       0.31250000 </v>
   <v>       0.06250000       0.81250000       0.31250000 </v>
   <v>       0.56250000       0.81250000       0.31250000 </v>
   <v>       0.06250000       0.31250000       0.81250000 </v>
   <v>       0.56250000       0.31250000       0.81250000 </v>
   <v>       0.06250000       0.81250000       0.81250000 </v>
   <v>       0.56250000       0.81250000       0.81250000 </v>
   <v>       0.31250000       0.06250000       0.31250000 </v>
   <v>       0.81250000       0.06250000       0.31250000 </v>
   <v>       0.31250000       0.56250000       0.31250000 </v>
   <v>       0.81250000       0.56250000       0.31250000 </v>
   <v>       0.31250000       0.06250000       0.81250000 </v>
   <v>       0.81250000       0.06250000       0.81250000 </v>
   <v>       0.31250000       0.56250000       0.81250000 </v>
   <v>       0.81250000       0.56250000       0.81250000 </v>
   <v>       0.31250000       0.31250000       0.06250000 </v>
   <v>       0.81250000       0.31250000       0.06250000 </v>
   <v>       0.31250000       0.81250000       0.06250000 </v>
   <v>       0.81250000       0.81250000       0.06250000 </v>
   <v>       0.31250000       0.31250000       0.56250000 </v>
   <v>       0.81250000       0.31250000       0.56250000 </v>
   <v>       0.31250000       0.81250000       0.56250000 </v>
   <v>       0.81250000       0.81250000       0.56250000 </v>
  </varray>
 </structure>
 <calculation>
  <scstep>
   <time name="dav">    3.42    3.42</time>
   <time name="total">    3.64    3.64</time>
   <energy>
    <i name="alphaZ">    105.52440745 </i>
    <i name="ewald">  -7265.47190089 </i>
    <i name="hartreedc">   -361.71586645 </i>
    <i name="XCdc">   -597.75718129 </i>
    <i name="pawpsdc">   5639.92317535 </i>
    <i name="pawaedc">  -4513.95313856 </i>
    <i name="eentropy">     -0.00016976 </i>
    <i name="bandstr">    856.47015105 </i>
    <i name="atom">   6596.14994790 </i>
    <i name="e_fr_energy">    459.16942481 </i>
    <i name="e_wo_entrp">    459.16959458 </i>
    <i name="e_0_energy">    459.16950970 </i>
   </energy>
  </scstep>
  <scstep>
   <time name="dav">    3.88    3.88</time>
   <time name="total">    3.88    3.89</time>
   <energy>
    <i name="e_fr_energy">   -299.96289852 </i>
    <i name="e_wo_entrp">   -299.96289852 </i>
    <i name="e_0_energy">   -299.96289852 </i>
   </energy>
  </scstep>
  <scstep>
   <time name="dav">    3.93    3.93</time>
   <time name="total">    3.93    3.94</time>
   <energy>
    <i name="e_fr_energy">   -350.82850642 </i>
    <i name="e_wo_entrp">   -350.82850642 </i>
    <i name="e_0_energy">   -350.82850642 </i>
   </energy>
  </scstep>
  <scstep>
   <time name="dav">    3.92    3.93</time>
   <time name="total">    3.92    3.93</time>
   <energy>
    <i name="e_fr_energy">   -352.26938559 </i>
    <i name="e_wo_entrp">   -352.26938559 </i>
    <i name="e_0_energy">   -352.26938559 </i>
   </energy>
  </scstep>
  <scstep>
   <time name="dav">    3.87    3.87</time>
   <time name="total">    4.11    4.12</time>
   <energy>
    <i name="e_fr_energy">   -352.31546631 </i>
    <i name="e_wo_entrp">   -352.31546631 </i>
    <i name="e_0_energy">   -352.31546631 </i>
   </energy>
  </scstep>
  <scstep>
   <time name="dav">    3.79    3.80</time>
   <time name="total">    4.23    4.24</time>
   <energy>
    <i name="e_fr_energy">   -348.58730331 </i>
    <i name="e_wo_entrp">   -348.58730331 </i>
    <i name="e_0_energy">   -348.58730331 </i>
   </energy>
  </scstep>
  <scstep>
   <time name="dav">    3.75    3.77</time>
   <time name="total">    4.19    4.21</time>
   <energy>
    <i name="e_fr_energy">   -346.87478806 </i>
    <i name="e_wo_entrp">   -346.87478806 </i>
    <i name="e_0_energy">   -346.87478806 </i>
   </energy>
  </scstep>
  <scstep>
   <time name="dav">    3.82    3.83</time>
   <time name="total">    4.27    4.28</time>
   <energy>
    <i name="e_fr_energy">   -346.90090739 </i>
    <i name="e_wo_entrp">   -346.90090739 </i>
    <i name="e_0_energy">   -346.90090739 </i>
   </energy>
  </scstep>
  <scstep>
   <time name="dav">    4.02    4.02</time>
   <time name="total">    4.46    4.47</time>
   <energy>
    <i name="e_fr_energy">   -346.90771746 </i>
    <i name="e_wo_entrp">   -346.90771746 </i>
    <i name="e_0_energy">   -346.90771746 </i>
   </energy>
  </scstep>
  <scstep>
   <time name="dav">    3.67    3.68</time>
   <time name="total">    4.11    4.12</time>
   <energy>
    <i name="e_fr_energy">   -346.90975682 </i>
    <i name="e_wo_entrp">   -346.90975682 </i>
    <i name="e_0_energy">   -346.90975682 </i>
   </energy>
  </scstep>
  <scstep>
   <time name="dav">    3.92    3.92</time>
   <time name="total">    4.36    4.37</time>
   <energy>
    <i name="e_fr_energy">   -346.90973103 </i>
    <i name="e_wo_entrp">   -346.90973103 </i>
    <i name="e_0_energy">   -346.90973103 </i>
   </energy>
  </scstep>
  <scstep>
   <time name="dav">    3.82    3.82</time>
   <time name="total">    4.26    4.27</time>
   <energy>
    <i name="e_fr_energy">   -346.90974615 </i>
    <i name="e_wo_entrp">   -346.90974615 </i>
    <i name="e_0_energy">   -346.90974615 </i>
   </energy>
  </scstep>
  <scstep>
   <time name="dav">    3.84    3.85</time>
   <time name="total">    4.28    4.29</time>
   <energy>
    <i name="e_fr_energy">   -346.90974653 </i>
    <i name="e_wo_entrp">   -346.90974653 </i>
    <i name="e_0_energy">   -346.90974653 </i>
   </energy>
  </scstep>
  <scstep>
   <time name="dav">    3.88    3.90</time>
   <time name="total">    4.32    4.35</time>
   <energy>
    <i name="e_fr_energy">   -346.90974718 </i>
    <i name="e_wo_entrp">   -346.90974718 </i>
    <i name="e_0_energy">   -346.90974718 </i>
   </energy>
  </scstep>
  <scstep>
   <time name="dav">    3.32    3.33</time>
   <time name="total">    3.76    4.31</time>
   <energy>
    <i name="e_fr_energy">   -346.90974693 </i>
    <i name="e_wo_entrp">   -346.90974693 </i>
    <i name="e_0_energy">   -346.90974693 </i>
   </energy>
  </scstep>
  <scstep>
   <time name="dav">    2.66    2.66</time>
   <time name="total">    3.10    3.11</time>
   <energy>
    <i name="e_fr_energy">   -346.90974701 </i>
    <i name="e_wo_entrp">   -346.90974701 </i>
    <i name="e_0_energy">   -346.90974701 </i>
   </energy>
  </scstep>
  <scstep>
   <time name="dav">    2.62    2.62</time>
   <time name="total">    3.06    3.07</time>
   <energy>
    <i name="e_fr_energy">   -346.90974700 </i>
    <i name="e_wo_entrp">   -346.90974700 </i>
    <i name="e_0_energy">   -346.90974700 </i>
   </energy>
  </scstep>
  <scstep>
   <time name="dav">    2.58    2.58</time>
   <time name="total">    3.02    3.04</time>
   <energy>
    <i name="e_fr_energy">   -346.90974701 </i>
    <i name="e_wo_entrp">   -346.90974701 </i>
    <i name="e_0_energy">   -346.90974701 </i>
   </energy>
  </scstep>
  <scstep>
   <time name="dav">    2.56    2.56</time>
   <time name="total">    2.75    2.77</time>
   <energy>
    <i name="alphaZ">    105.52440745 </i>
    <i name="ewald">  -7265.47190089 </i>
    <i name="hartreedc">   -485.14731062 </i>
    <i name="XCdc">   -577.61227504 </i>
    <i name="pawpsdc">  27883.26688962 </i>
    <i name="pawaedc"> -26763.98470032 </i>
    <i name="eentropy">      0.00000000 </i>
    <i name="bandstr">    160.36519489 </i>
    <i name="atom">   6596.14994790 </i>
    <i name="e_fr_energy">   -346.90974702 </i>
    <i name="e_wo_entrp">   -346.90974702 </i>
    <i name="e_0_energy">   -346.90974702 </i>
   </energy>
  </scstep>
  <structure>
   <crystal>
    <varray name="basis" >
     <v>      10.93252578       0.00000000       0.00000000 </v>
     <v>       0.00000000      10.93252578       0.00000000 </v>
     <v>       0.00000000       0.00000000      10.93252578 </v>
    </varray>
    <i name="volume">   1306.65679237 </i>
    <varray name="rec_basis" >
     <v>       0.09147017       0.00000000       0.00000000 </v>
     <v>       0.00000000       0.09147017       0.00000000 </v>
     <v>       0.00000000       0.00000000       0.09147017 </v>
    </varray>
   </crystal>
   <varray name="positions" >
    <v>       0.44024411       0.43750000       0.43750000 </v>
    <v>       0.93750000       0.43750000       0.43750000 </v>
    <v>       0.43750000       0.93750000       0.43750000 </v>
    <v>       0.93750000       0.93750000       0.43750000 </v>
    <v>       0.43750000       0.43750000       0.93750000 </v>
    <v>       0.93750000       0.43750000       0.93750000 </v>
    <v>       0.43750000       0.93750000       0.93750000 </v>
    <v>       0.93750000       0.93750000       0.93750000 </v>
    <v>       0.43750000       0.18750000       0.18750000 </v>
    <v>       0.93750000       0.18750000       0.18750000 </v>
    <v>       0.43750000       0.68750000       0.18750000 </v>
    <v>       0.93750000       0.68750000       0.18750000 </v>
    <v>       0.43750000       0.18750000       0.68750000 </v>
    <v>       0.93750000       0.18750000       0.68750000 </v>
    <v>       0.43750000       0.68750000       0.68750000 </v>
    <v>       0.93750000       0.68750000       0.68750000 </v>
    <v>       0.18750000       0.43750000       0.18750000 </v>
    <v>       0.68750000       0.43750000       0.18750000 </v>
    <v>       0.18750000       0.93750000       0.18750000 </v>
    <v>       0.68750000       0.93750000       0.18750000 </v>
    <v>       0.18750000       0.43750000       0.68750000 </v>
    <v>       0.68750000       0.43750000       0.68750000 </v>
    <v>       0.18750000       0.93750000       0.68750000 </v>
    <v>       0.68750000       0.93750000       0.68750000 </v>
    <v>       0.18750000       0.18750000       0.43750000 </v>
    <v>       0.68750000       0.18750000       0.43750000 </v>
    <v>       0.18750000       0.68750000       0.43750000 </v>
    <v>       0.68750000       0.68750000       0.43750000 </v>
    <v>       0.18750000       0.18750000       0.93750000 </v>
    <v>       0.68750000       0.18750000       0.93750000 </v>
    <v>       0.18750000       0.68750000       0.93750000 </v>
    <v>       0.68750000       0.68750000       0.93750000 </v>
    <v>       0.06250000       0.06250000       0.06250000 </v>
    <v>       0.56250000       0.06250000       0.06250000 </v>
    <v>       0.06250000       0.56250000       0.06250000 </v>
    <v>       0.56250000       0.56250000       0.06250000 </v>
    <v>       0.06250000       0.06250000       0.56250000 </v>
    <v>       0.56250000       0.06250000       0.56250000 </v>
    <v>       0.06250000       0.56250000       0.56250000 </v>
    <v>       0.56524411       0.56250000       0.56250000 </v>
    <v>       0.06250000       0.31250000       0.31250000 </v>
    <v>       0.56250000       0.31250000       0.31250000 </v>
    <v>       0.06250000       0.81250000       0.31250000 </v>
    <v>       0.56250000       0.81250000       0.31250000 </v>
    <v>       0.06250000       0.31250000       0.81250000 </v>
    <v>       0.56250000       0.31250000       0.81250000 </v>
    <v>       0.06250000       0.81250000       0.81250000 </v>
    <v>       0.56250000       0.81250000       0.81250000 </v>
    <v>       0.31250000       0.06250000       0.31250000 </v>
    <v>       0.81250000       0.06250000       0.31250000 </v>
    <v>       0.31250000       0.56250000       0.31250000 </v>
    <v>       0.81250000       0.56250000       0.31250000 </v>
    <v>       0.31250000       0.06250000       0.81250000 </v>
    <v>       0.81250000       0.06250000       0.81250000 </v>
    <v>       0.31250000       0.56250000       0.81250000 </v>
    <v>       0.81250000       0.56250000       0.81250000 </v>
    <v>       0.31250000       0.31250000       0.06250000 </v>
    <v>       0.81250000       0.31250000       0.06250000 </v>
    <v>       0.31250000       0.81250000       0.06250000 </v>
    <v>       0.81250000       0.81250000       0.06250000 </v>
    <v>       0.31250000       0.31250000       0.56250000 </v>
    <v>       0.81250000       0.31250000       0.56250000 </v>
    <v>       0.31250000       0.81250000       0.56250000 </v>
    <v>       0.81250000       0.81250000       0.56250000 </v>
   </varray>
  </structure>
  <varray name="forces" >
   <v>      -0.29134789       0.06618530       0.06618530 </v>
   <v>       0.00027338       0.00090782       0.00090782 </v>
   <v>      -0.00012146       0.00089206       0.00125203 </v>
   <v>       0.00048581       0.00063391       0.00067692 </v>
   <v>      -0.00012146       0.00125203       0.00089206 </v>
   <v>       0.00048581       0.00067692       0.00063391 </v>
   <v>      -0.00537626       0.00068119       0.00068119 </v>
   <v>       0.00004017       0.00074652       0.00074652 </v>
   <v>      -0.00671045       0.00208143       0.00208143 </v>
   <v>      -0.00055862      -0.00052162      -0.00052162 </v>
   <v>      -0.01421594       0.00143365      -0.00356760 </v>
   <v>       0.00065197      -0.00046619      -0.00086243 </v>
   <v>      -0.01421594      -0.00356760       0.00143365 </v>
   <v>       0.00065197      -0.00086243      -0.00046619 </v>
   <v>       0.08031645      -0.06366479      -0.06366479 </v>
   <v>      -0.00029237      -0.00113140      -0.00113140 </v>
   <v>       0.00630075      -0.00334933       0.00614548 </v>
   <v>       0.00432666      -0.00400925      -0.00475945 </v>
   <v>       0.00048078      -0.00098407      -0.00110194 </v>
   <v>       0.00722979      -0.00091249       0.00252885 </v>
   <v>       0.00538080       0.00177180      -0.00465320 </v>
   <v>       0.10160852      -0.06345489       0.07183040 </v>
   <v>       0.00162918      -0.00036280       0.00249830 </v>
   <v>      -0.00045119      -0.00068179      -0.00061468 </v>
   <v>       0.00630075       0.00614548      -0.00334933 </v>
   <v>       0.00432666      -0.00475945      -0.00400925 </v>
   <v>       0.00538080      -0.00465320       0.00177180 </v>
   <v>       0.10160852       0.07183040      -0.06345489 </v>
   <v>       0.00048078      -0.00110194      -0.00098407 </v>
   <v>       0.00722979       0.00252885      -0.00091249 </v>
   <v>       0.00162918       0.00249830      -0.00036280 </v>
   <v>      -0.00045119      -0.00061468      -0.00068179 </v>
   <v>       0.00004295       0.00075412       0.00075412 </v>
   <v>      -0.00537586       0.00068115       0.00068115 </v>
   <v>       0.00044171       0.00068382       0.00060550 </v>
   <v>      -0.00015208       0.00120602       0.00092184 </v>
   <v>       0.00044171       0.00060550       0.00068382 </v>
   <v>      -0.00015208       0.00092184       0.00120602 </v>
   <v>       0.00027236       0.00090584       0.00090584 </v>
   <v>      -0.29407709       0.06088317       0.06088317 </v>
   <v>      -0.00028654      -0.00114260      -0.00114260 </v>
   <v>       0.08292068      -0.06884875      -0.06884875 </v>
   <v>       0.00060216      -0.00083710      -0.00043475 </v>
   <v>      -0.01435111      -0.00368377       0.00154560 </v>
   <v>       0.00060216      -0.00043475      -0.00083710 </v>
   <v>      -0.01435111       0.00154560      -0.00368377 </v>
   <v>      -0.00053786      -0.00051878      -0.00051878 </v>
   <v>      -0.00660053       0.00199806       0.00199806 </v>
   <v>      -0.00041875      -0.00067213      -0.00063562 </v>
   <v>       0.00168964      -0.00041724       0.00257087 </v>
   <v>       0.09872417      -0.05817771       0.06649468 </v>
   <v>       0.00551733       0.00185584      -0.00478326 </v>
   <v>       0.00715800      -0.00090850       0.00254153 </v>
   <v>       0.00048733      -0.00097637      -0.00110635 </v>
   <v>       0.00421536      -0.00388920      -0.00467639 </v>
   <v>       0.00642930      -0.00345252       0.00634525 </v>
   <v>      -0.00041875      -0.00063562      -0.00067213 </v>
   <v>       0.00168964       0.00257087      -0.00041724 </v>
   <v>       0.00715800       0.00254153      -0.00090850 </v>
   <v>       0.00048733      -0.00110635      -0.00097637 </v>
   <v>       0.09872417       0.06649468      -0.05817771 </v>
   <v>       0.00551733      -0.00478326       0.00185584 </v>
   <v>       0.00421536      -0.00467639      -0.00388920 </v>
   <v>       0.00642930       0.00634525      -0.00345252 </v>
  </varray>
  <varray name="stress" >
   <v>      -0.01649388      -0.00464743      -0.00464743 </v>
   <v>      -0.00464741       0.01314674      -0.00878401 </v>
   <v>      -0.00464741      -0.00878401       0.01314674 </v>
  </varray>
  <energy>
   <i name="e_fr_energy">   -346.90974702 </i>
   <i name="e_wo_entrp">   -346.90974702 </i>
   <i name="e_0_energy">      0.00000000 </i>
  </energy>
  <time name="totalsc">   82.33   83.13</time>
  <eigenvalues>
   <array>
    <dimension dim="1">band</dimension>
    <dimension dim="2">kpoint</dimension>
    <dimension dim="3">spin</dimension>
    <field>eigene</field>
    <field>occ</field>
    <set>
     <set comment="spin 1">
      <set comment="kpoint 1">
       <r>   -5.9932    1.0000 </r>
       <r>   -5.4691    1.0000 </r>
       <r>   -5.4646    1.0000 </r>
       <r>   -5.4605    1.0000 </r>
       <r>   -4.9696    1.0000 </r>
       <r>   -4.9654    1.0000 </r>
       <r>   -4.9615    1.0000 </r>
       <r>   -4.5321    1.0000 </r>
       <r>   -4.4370    1.0000 </r>
       <r>   -4.4324    1.0000 </r>
       <r>   -4.4280    1.0000 </r>
       <r>   -4.0264    1.0000 </r>
       <r>   -4.0185    1.0000 </r>
       <r>   -4.0163    1.0000 </r>
       <r>   -4.0163    1.0000 </r>
       <r>   -4.0143    1.0000 </r>
       <r>   -4.0066    1.0000 </r>
       <r>   -3.8265    1.0000 </r>
       <r>   -3.8243    1.0000 </r>
       <r>   -3.8220    1.0000 </r>
       <r>   -3.3328    1.0000 </r>
       <r>   -3.3283    1.0000 </r>
       <r>   -3.3239    1.0000 </r>
       <r>   -2.9639    1.0000 </r>
       <r>   -2.9592    1.0000 </r>
       <r>   -2.9545    1.0000 </r>
       <r>   -2.7982    1.0000 </r>
       <r>   -2.7934    1.0000 </r>
       <r>   -2.7909    1.0000 </r>
       <r>   -2.7908    1.0000 </r>
       <r>   -2.7883    1.0000 </r>
       <r>   -2.7831    1.0000 </r>
       <r>   -1.2537    1.0000 </r>
       <r>   -1.2522    1.0000 </r>
       <r>   -1.2486    1.0000 </r>
       <r>   -1.2486    1.0000 </r>
       <r>   -1.2455    1.0000 </r>
       <r>   -1.2445    1.0000 </r>
       <r>   -1.1565    1.0000 </r>
       <r>   -1.1509    1.0000 </r>
       <r>   -1.1455    1.0000 </r>
       <r>   -1.0352    1.0000 </r>
       <r>   -1.0328    1.0000 </r>
       <r>   -1.0298    1.0000 </r>
       <r>   -0.9477    1.0000 </r>
       <r>   -0.9469    1.0000 </r>
       <r>   -0.9459    1.0000 </r>
       <r>   -0.2446    1.0000 </r>
       <r>   -0.1670    1.0000 </r>
       <r>   -0.1641    1.0000 </r>
       <r>   -0.1602    1.0000 </r>
       <r>   -0.1601    1.0000 </r>
       <r>   -0.1563    1.0000 </r>
       <r>   -0.1530    1.0000 </r>
       <r>    0.7131    1.0000 </r>
       <r>    0.7142    1.0000 </r>
       <r>    0.7155    1.0000 </r>
       <r>    1.0455    1.0000 </r>
       <r>    1.0470    1.0000 </r>
       <r>    1.0487    1.0000 </r>
       <r>    1.6522    1.0000 </r>
       <r>    1.6561    1.0000 </r>
       <r>    1.6570    1.0000 </r>
       <r>    1.6571    1.0000 </r>
       <r>    1.6579    1.0000 </r>
       <r>    1.6617    1.0000 </r>
       <r>    1.7157    1.0000 </r>
       <r>    1.7158    1.0000 </r>
       <r>    1.7163    1.0000 </r>
       <r>    2.2653    1.0000 </r>
       <r>    2.2679    1.0000 </r>
       <r>    2.2702    1.0000 </r>
       <r>    2.3651    1.0000 </r>
       <r>    2.3704    1.0000 </r>
       <r>    2.3710    1.0000 </r>
       <r>    2.3710    1.0000 </r>
       <r>    2.3716    1.0000 </r>
       <r>    2.3765    1.0000 </r>
       <r>    2.4224    1.0000 </r>
       <r>    2.4247    1.0000 </r>
       <r>    2.4278    1.0000 </r>
       <r>    2.7292    1.0000 </r>
       <r>    2.7344    1.0000 </r>
       <r>    2.7349    1.0000 </r>
       <r>    2.7350    1.0000 </r>
       <r>    2.7354    1.0000 </r>
       <r>    2.7407    1.0000 </r>
       <r>    2.9981    1.0000 </r>
       <r>    2.9993    1.0000 </r>
       <r>    2.9995    1.0000 </r>
       <r>    3.0117    1.0000 </r>
       <r>    3.0147    1.0000 </r>
       <r>    3.0151    1.0000 </r>
       <r>    3.3595    1.0000 </r>
       <r>    3.3621    1.0000 </r>
       <r>    3.3644    1.0000 </r>
       <r>    3.3816    1.0000 </r>
       <r>    3.3841    1.0000 </r>
       <r>    3.3872    1.0000 </r>
       <r>    3.4658    1.0000 </r>
       <r>    3.4668    1.0000 </r>
       <r>    3.4675    1.0000 </r>
       <r>    3.7370    1.0000 </r>
       <r>    3.7396    1.0000 </r>
       <r>    3.7410    1.0000 </r>
       <r>    3.7413    1.0000 </r>
       <r>    3.7427    1.0000 </r>
       <r>    3.7458    1.0000 </r>
       <r>    3.7797    1.0000 </r>
       <r>    3.7811    1.0000 </r>
       <r>    3.7813    1.0000 </r>
       <r>    4.0405    1.0000 </r>
       <r>    4.0978    1.0000 </r>
       <r>    4.0980    1.0000 </r>
       <r>    4.0981    1.0000 </r>
       <r>    4.3402    1.0000 </r>
       <r>    4.3412    1.0000 </r>
       <r>    4.3420    1.0000 </r>
       <r>    4.4049    1.0000 </r>
       <r>    4.4056    1.0000 </r>
       <r>    4.4064    1.0000 </r>
       <r>    4.5629    1.0000 </r>
       <r>    4.5630    1.0000 </r>
       <r>    4.8692    1.0000 </r>
       <r>    4.8701    1.0000 </r>
       <r>    4.8709    1.0000 </r>
       <r>    5.3496    1.0000 </r>
       <r>    5.3498    1.0000 </r>
       <r>    6.5629    0.0000 </r>
       <r>    6.5635    0.0000 </r>
       <r>    6.5638    0.0000 </r>
       <r>    7.0025    0.0000 </r>
       <r>    7.0045    0.0000 </r>
       <r>    7.0064    0.0000 </r>
       <r>    7.2337    0.0000 </r>
       <r>    7.4886    0.0000 </r>
       <r>    7.4907    0.0000 </r>
       <r>    7.4926    0.0000 </r>
       <r>    7.6166    0.0000 </r>
       <r>    7.6197    0.0000 </r>
       <r>    7.6226    0.0000 </r>
       <r>    7.7764    0.0000 </r>
       <r>    7.7800    0.0000 </r>
       <r>    7.7832    0.0000 </r>
       <r>    7.8008    0.0000 </r>
       <r>    7.8011    0.0000 </r>
       <r>    7.8018    0.0000 </r>
       <r>    8.0255    0.0000 </r>
       <r>    8.0280    0.0000 </r>
       <r>    8.0306    0.0000 </r>
       <r>    8.0307    0.0000 </r>
       <r>    8.0333    0.0000 </r>
       <r>    8.0354    0.0000 </r>
       <r>    8.0814    0.0000 </r>
       <r>    8.2933    0.0000 </r>
       <r>    8.2950    0.0000 </r>
       <r>    8.2967    0.0000 </r>
       <r>    8.4949    0.0000 </r>
       <r>    8.5015    0.0000 </r>
       <r>    8.5019    0.0000 </r>
       <r>    8.5029    0.0000 </r>
       <r>    8.5101    0.0000 </r>
       <r>    8.5182    0.0000 </r>
       <r>    8.5455    0.0000 </r>
      </set>
      <set comment="kpoint 2">
       <r>   -5.9932    1.0000 </r>
       <r>   -5.4678    1.0000 </r>
       <r>   -5.4646    1.0000 </r>
       <r>   -5.4618    1.0000 </r>
       <r>   -4.9686    1.0000 </r>
       <r>   -4.9654    1.0000 </r>
       <r>   -4.9625    1.0000 </r>
       <r>   -4.5323    1.0000 </r>
       <r>   -4.4358    1.0000 </r>
       <r>   -4.4324    1.0000 </r>
       <r>   -4.4289    1.0000 </r>
       <r>   -4.0187    1.0000 </r>
       <r>   -4.0186    1.0000 </r>
       <r>   -4.0164    1.0000 </r>
       <r>   -4.0163    1.0000 </r>
       <r>   -4.0142    1.0000 </r>
       <r>   -4.0141    1.0000 </r>
       <r>   -3.8244    1.0000 </r>
       <r>   -3.8244    1.0000 </r>
       <r>   -3.8243    1.0000 </r>
       <r>   -3.3334    1.0000 </r>
       <r>   -3.3283    1.0000 </r>
       <r>   -3.3233    1.0000 </r>
       <r>   -2.9592    1.0000 </r>
       <r>   -2.9591    1.0000 </r>
       <r>   -2.9589    1.0000 </r>
       <r>   -2.7936    1.0000 </r>
       <r>   -2.7919    1.0000 </r>
       <r>   -2.7909    1.0000 </r>
       <r>   -2.7909    1.0000 </r>
       <r>   -2.7896    1.0000 </r>
       <r>   -2.7881    1.0000 </r>
       <r>   -1.2524    1.0000 </r>
       <r>   -1.2498    1.0000 </r>
       <r>   -1.2488    1.0000 </r>
       <r>   -1.2486    1.0000 </r>
       <r>   -1.2477    1.0000 </r>
       <r>   -1.2453    1.0000 </r>
       <r>   -1.1515    1.0000 </r>
       <r>   -1.1510    1.0000 </r>
       <r>   -1.1510    1.0000 </r>
       <r>   -1.0331    1.0000 </r>
       <r>   -1.0328    1.0000 </r>
       <r>   -1.0324    1.0000 </r>
       <r>   -0.9505    1.0000 </r>
       <r>   -0.9468    1.0000 </r>
       <r>   -0.9426    1.0000 </r>
       <r>   -0.2447    1.0000 </r>
       <r>   -0.1646    1.0000 </r>
       <r>   -0.1629    1.0000 </r>
       <r>   -0.1602    1.0000 </r>
       <r>   -0.1601    1.0000 </r>
       <r>   -0.1570    1.0000 </r>
       <r>   -0.1558    1.0000 </r>
       <r>    0.7116    1.0000 </r>
       <r>    0.7143    1.0000 </r>
       <r>    0.7171    1.0000 </r>
       <r>    1.0448    1.0000 </r>
       <r>    1.0470    1.0000 </r>
       <r>    1.0495    1.0000 </r>
       <r>    1.6540    1.0000 </r>
       <r>    1.6552    1.0000 </r>
       <r>    1.6565    1.0000 </r>
       <r>    1.6571    1.0000 </r>
       <r>    1.6587    1.0000 </r>
       <r>    1.6599    1.0000 </r>
       <r>    1.7139    1.0000 </r>
       <r>    1.7160    1.0000 </r>
       <r>    1.7187    1.0000 </r>
       <r>    2.2662    1.0000 </r>
       <r>    2.2678    1.0000 </r>
       <r>    2.2692    1.0000 </r>
       <r>    2.3659    1.0000 </r>
       <r>    2.3664    1.0000 </r>
       <r>    2.3710    1.0000 </r>
       <r>    2.3710    1.0000 </r>
       <r>    2.3748    1.0000 </r>
       <r>    2.3751    1.0000 </r>
       <r>    2.4240    1.0000 </r>
       <r>    2.4258    1.0000 </r>
       <r>    2.4260    1.0000 </r>
       <r>    2.7309    1.0000 </r>
       <r>    2.7340    1.0000 </r>
       <r>    2.7349    1.0000 </r>
       <r>    2.7350    1.0000 </r>
       <r>    2.7360    1.0000 </r>
       <r>    2.7389    1.0000 </r>
       <r>    2.9973    1.0000 </r>
       <r>    2.9992    1.0000 </r>
       <r>    3.0008    1.0000 </r>
       <r>    3.0112    1.0000 </r>
       <r>    3.0142    1.0000 </r>
       <r>    3.0158    1.0000 </r>
       <r>    3.3606    1.0000 </r>
       <r>    3.3622    1.0000 </r>
       <r>    3.3632    1.0000 </r>
       <r>    3.3826    1.0000 </r>
       <r>    3.3842    1.0000 </r>
       <r>    3.3866    1.0000 </r>
       <r>    3.4644    1.0000 </r>
       <r>    3.4666    1.0000 </r>
       <r>    3.4687    1.0000 </r>
       <r>    3.7373    1.0000 </r>
       <r>    3.7400    1.0000 </r>
       <r>    3.7411    1.0000 </r>
       <r>    3.7414    1.0000 </r>
       <r>    3.7427    1.0000 </r>
       <r>    3.7456    1.0000 </r>
       <r>    3.7781    1.0000 </r>
       <r>    3.7807    1.0000 </r>
       <r>    3.7830    1.0000 </r>
       <r>    4.0406    1.0000 </r>
       <r>    4.0951    1.0000 </r>
       <r>    4.0979    1.0000 </r>
       <r>    4.1005    1.0000 </r>
       <r>    4.3384    1.0000 </r>
       <r>    4.3410    1.0000 </r>
       <r>    4.3439    1.0000 </r>
       <r>    4.4019    1.0000 </r>
       <r>    4.4056    1.0000 </r>
       <r>    4.4097    1.0000 </r>
       <r>    4.5628    1.0000 </r>
       <r>    4.5629    1.0000 </r>
       <r>    4.8666    1.0000 </r>
       <r>    4.8700    1.0000 </r>
       <r>    4.8736    1.0000 </r>
       <r>    5.3495    1.0000 </r>
       <r>    5.3497    1.0000 </r>
       <r>    6.5628    0.0000 </r>
       <r>    6.5635    0.0000 </r>
       <r>    6.5640    0.0000 </r>
       <r>    7.0036    0.0000 </r>
       <r>    7.0045    0.0000 </r>
       <r>    7.0053    0.0000 </r>
       <r>    7.2338    0.0000 </r>
       <r>    7.4907    0.0000 </r>
       <r>    7.4907    0.0000 </r>
       <r>    7.4909    0.0000 </r>
       <r>    7.6194    0.0000 </r>
       <r>    7.6197    0.0000 </r>
       <r>    7.6198    0.0000 </r>
       <r>    7.7776    0.0000 </r>
       <r>    7.7801    0.0000 </r>
       <r>    7.7819    0.0000 </r>
       <r>    7.7986    0.0000 </r>
       <r>    7.8009    0.0000 </r>
       <r>    7.8039    0.0000 </r>
       <r>    8.0270    0.0000 </r>
       <r>    8.0295    0.0000 </r>
       <r>    8.0306    0.0000 </r>
       <r>    8.0307    0.0000 </r>
       <r>    8.0319    0.0000 </r>
       <r>    8.0336    0.0000 </r>
       <r>    8.0818    0.0000 </r>
       <r>    8.2947    0.0000 </r>
       <r>    8.2950    0.0000 </r>
       <r>    8.2954    0.0000 </r>
       <r>    8.4951    0.0000 </r>
       <r>    8.5010    0.0000 </r>
       <r>    8.5018    0.0000 </r>
       <r>    8.5037    0.0000 </r>
       <r>    8.5088    0.0000 </r>
       <r>    8.5183    0.0000 </r>
       <r>    8.5406    0.0000 </r>
      </set>
      <set comment="kpoint 3">
       <r>   -5.9932    1.0000 </r>
       <r>   -5.4687    1.0000 </r>
       <r>   -5.4647    1.0000 </r>
       <r>   -5.4609    1.0000 </r>
       <r>   -4.9692    1.0000 </r>
       <r>   -4.9654    1.0000 </r>
       <r>   -4.9618    1.0000 </r>
       <r>   -4.5321    1.0000 </r>
       <r>   -4.4364    1.0000 </r>
       <r>   -4.4323    1.0000 </r>
       <r>   -4.4286    1.0000 </r>
       <r>   -4.0250    1.0000 </r>
       <r>   -4.0186    1.0000 </r>
       <r>   -4.0164    1.0000 </r>
       <r>   -4.0163    1.0000 </r>
       <r>   -4.0142    1.0000 </r>
       <r>   -4.0081    1.0000 </r>
       <r>   -3.8291    1.0000 </r>
       <r>   -3.8244    1.0000 </r>
       <r>   -3.8192    1.0000 </r>
       <r>   -3.3316    1.0000 </r>
       <r>   -3.3283    1.0000 </r>
       <r>   -3.3250    1.0000 </r>
       <r>   -2.9642    1.0000 </r>
       <r>   -2.9591    1.0000 </r>
       <r>   -2.9545    1.0000 </r>
       <r>   -2.7990    1.0000 </r>
       <r>   -2.7927    1.0000 </r>
       <r>   -2.7911    1.0000 </r>
       <r>   -2.7907    1.0000 </r>
       <r>   -2.7890    1.0000 </r>
       <r>   -2.7823    1.0000 </r>
       <r>   -1.2565    1.0000 </r>
       <r>   -1.2506    1.0000 </r>
       <r>   -1.2487    1.0000 </r>
       <r>   -1.2485    1.0000 </r>
       <r>   -1.2469    1.0000 </r>
       <r>   -1.2418    1.0000 </r>
       <r>   -1.1552    1.0000 </r>
       <r>   -1.1511    1.0000 </r>
       <r>   -1.1465    1.0000 </r>
       <r>   -1.0362    1.0000 </r>
       <r>   -1.0327    1.0000 </r>
       <r>   -1.0294    1.0000 </r>
       <r>   -0.9521    1.0000 </r>
       <r>   -0.9468    1.0000 </r>
       <r>   -0.9413    1.0000 </r>
       <r>   -0.2446    1.0000 </r>
       <r>   -0.1673    1.0000 </r>
       <r>   -0.1617    1.0000 </r>
       <r>   -0.1605    1.0000 </r>
       <r>   -0.1598    1.0000 </r>
       <r>   -0.1585    1.0000 </r>
       <r>   -0.1529    1.0000 </r>
       <r>    0.7096    1.0000 </r>
       <r>    0.7143    1.0000 </r>
       <r>    0.7189    1.0000 </r>
       <r>    1.0457    1.0000 </r>
       <r>    1.0471    1.0000 </r>
       <r>    1.0486    1.0000 </r>
       <r>    1.6531    1.0000 </r>
       <r>    1.6544    1.0000 </r>
       <r>    1.6568    1.0000 </r>
       <r>    1.6574    1.0000 </r>
       <r>    1.6596    1.0000 </r>
       <r>    1.6608    1.0000 </r>
       <r>    1.7146    1.0000 </r>
       <r>    1.7160    1.0000 </r>
       <r>    1.7175    1.0000 </r>
       <r>    2.2655    1.0000 </r>
       <r>    2.2677    1.0000 </r>
       <r>    2.2699    1.0000 </r>
       <r>    2.3668    1.0000 </r>
       <r>    2.3691    1.0000 </r>
       <r>    2.3708    1.0000 </r>
       <r>    2.3711    1.0000 </r>
       <r>    2.3728    1.0000 </r>
       <r>    2.3751    1.0000 </r>
       <r>    2.4217    1.0000 </r>
       <r>    2.4248    1.0000 </r>
       <r>    2.4281    1.0000 </r>
       <r>    2.7298    1.0000 </r>
       <r>    2.7325    1.0000 </r>
       <r>    2.7343    1.0000 </r>
       <r>    2.7356    1.0000 </r>
       <r>    2.7373    1.0000 </r>
       <r>    2.7400    1.0000 </r>
       <r>    2.9975    1.0000 </r>
       <r>    2.9993    1.0000 </r>
       <r>    3.0012    1.0000 </r>
       <r>    3.0122    1.0000 </r>
       <r>    3.0134    1.0000 </r>
       <r>    3.0147    1.0000 </r>
       <r>    3.3582    1.0000 </r>
       <r>    3.3620    1.0000 </r>
       <r>    3.3652    1.0000 </r>
       <r>    3.3797    1.0000 </r>
       <r>    3.3846    1.0000 </r>
       <r>    3.3892    1.0000 </r>
       <r>    3.4648    1.0000 </r>
       <r>    3.4666    1.0000 </r>
       <r>    3.4685    1.0000 </r>
       <r>    3.7327    1.0000 </r>
       <r>    3.7387    1.0000 </r>
       <r>    3.7411    1.0000 </r>
       <r>    3.7415    1.0000 </r>
       <r>    3.7438    1.0000 </r>
       <r>    3.7498    1.0000 </r>
       <r>    3.7787    1.0000 </r>
       <r>    3.7806    1.0000 </r>
       <r>    3.7831    1.0000 </r>
       <r>    4.0405    1.0000 </r>
       <r>    4.0956    1.0000 </r>
       <r>    4.0979    1.0000 </r>
       <r>    4.1004    1.0000 </r>
       <r>    4.3391    1.0000 </r>
       <r>    4.3410    1.0000 </r>
       <r>    4.3430    1.0000 </r>
       <r>    4.4018    1.0000 </r>
       <r>    4.4056    1.0000 </r>
       <r>    4.4101    1.0000 </r>
       <r>    4.5628    1.0000 </r>
       <r>    4.5629    1.0000 </r>
       <r>    4.8674    1.0000 </r>
       <r>    4.8699    1.0000 </r>
       <r>    4.8727    1.0000 </r>
       <r>    5.3495    1.0000 </r>
       <r>    5.3496    1.0000 </r>
       <r>    6.5596    0.0000 </r>
       <r>    6.5635    0.0000 </r>
       <r>    6.5672    0.0000 </r>
       <r>    7.0001    0.0000 </r>
       <r>    7.0045    0.0000 </r>
       <r>    7.0088    0.0000 </r>
       <r>    7.2337    0.0000 </r>
       <r>    7.4871    0.0000 </r>
       <r>    7.4909    0.0000 </r>
       <r>    7.4943    0.0000 </r>
       <r>    7.6152    0.0000 </r>
       <r>    7.6196    0.0000 </r>
       <r>    7.6240    0.0000 </r>
       <r>    7.7760    0.0000 </r>
       <r>    7.7800    0.0000 </r>
       <r>    7.7831    0.0000 </r>
       <r>    7.7983    0.0000 </r>
       <r>    7.8012    0.0000 </r>
       <r>    7.8047    0.0000 </r>
       <r>    8.0240    0.0000 </r>
       <r>    8.0266    0.0000 </r>
       <r>    8.0305    0.0000 </r>
       <r>    8.0307    0.0000 </r>
       <r>    8.0343    0.0000 </r>
       <r>    8.0368    0.0000 </r>
       <r>    8.0814    0.0000 </r>
       <r>    8.2922    0.0000 </r>
       <r>    8.2950    0.0000 </r>
       <r>    8.2978    0.0000 </r>
       <r>    8.4949    0.0000 </r>
       <r>    8.4989    0.0000 </r>
       <r>    8.5019    0.0000 </r>
       <r>    8.5055    0.0000 </r>
       <r>    8.5092    0.0000 </r>
       <r>    8.5163    0.0000 </r>
       <r>    8.5398    0.0000 </r>
      </set>
     </set>
    </set>
   </array>
  </eigenvalues>
  <separator name="orbital magnetization" >
   <v name="MAGDIPOLOUT">      0.00000000      0.00000000      0.00000000</v>
  </separator>
  <dos>
   <i name="efermi">      5.59749368 </i>
   <total>
    <array>
     <dimension dim="1">gridpoints</dimension>
     <dimension dim="2">spin</dimension>
     <field>energy</field>
     <field>total</field>
     <field>integrated</field>
     <set>
      <set comment="spin 1">
       <r>    -6.7201     0.0000     0.0000 </r>
       <r>    -6.6668     0.0000     0.0000 </r>
       <r>    -6.6135     0.0000     0.0000 </r>
       <r>    -6.5602     0.0000     0.0000 </r>
       <r>    -6.5069     0.0000     0.0000 </r>
       <r>    -6.4536     0.0000     0.0000 </r>
       <r>    -6.4003     0.0000     0.0000 </r>
       <r>    -6.3469     0.0000     0.0000 </r>
       <r>    -6.2936     0.0000     0.0000 </r>
       <r>    -6.2403     0.0000     0.0000 </r>
       <r>    -6.1870     0.0000     0.0000 </r>
       <r>    -6.1337     0.0013     0.0001 </r>
       <r>    -6.0804     0.2540     0.0136 </r>
       <r>    -6.0271     6.0709     0.3372 </r>
       <r>    -5.9738    20.2440     1.4164 </r>
       <r>    -5.9205    10.2009     1.9602 </r>
       <r>    -5.8672     0.7395     1.9996 </r>
       <r>    -5.8139     0.0069     2.0000 </r>
       <r>    -5.7605     0.0000     2.0000 </r>
       <r>    -5.7072     0.0000     2.0000 </r>
       <r>    -5.6539     0.0000     2.0000 </r>
       <r>    -5.6006     0.0073     2.0004 </r>
       <r>    -5.5473     1.1184     2.0600 </r>
       <r>    -5.4940    21.9336     3.2293 </r>
       <r>    -5.4407    61.4672     6.5060 </r>
       <r>    -5.3874    26.3781     7.9121 </r>
       <r>    -5.3341     1.6350     7.9993 </r>
       <r>    -5.2808     0.0130     8.0000 </r>
       <r>    -5.2275     0.0000     8.0000 </r>
       <r>    -5.1742     0.0000     8.0000 </r>
       <r>    -5.1208     0.0007     8.0000 </r>
       <r>    -5.0675     0.2259     8.0121 </r>
       <r>    -5.0142     9.3154     8.5087 </r>
       <r>    -4.9609    52.5018    11.3075 </r>
       <r>    -4.9076    44.7215    13.6915 </r>
       <r>    -4.8543     5.6900    13.9948 </r>
       <r>    -4.8010     0.0969    14.0000 </r>
       <r>    -4.7477     0.0002    14.0000 </r>
       <r>    -4.6944     0.0001    14.0000 </r>
       <r>    -4.6411     0.0388    14.0021 </r>
       <r>    -4.5878     2.1361    14.1159 </r>
       <r>    -4.5345    15.8488    14.9608 </r>
       <r>    -4.4811    26.2655    16.3610 </r>
       <r>    -4.4278    55.2315    19.3053 </r>
       <r>    -4.3745    44.7562    21.6912 </r>
       <r>    -4.3212     5.6954    21.9948 </r>
       <r>    -4.2679     0.0974    22.0000 </r>
       <r>    -4.2146     0.0002    22.0000 </r>
       <r>    -4.1613     0.0055    22.0003 </r>
       <r>    -4.1080     1.1486    22.0615 </r>
       <r>    -4.0547    30.7444    23.7005 </r>
       <r>    -4.0014   117.4525    29.9617 </r>
       <r>    -3.9481    69.5597    33.6698 </r>
       <r>    -3.8948     8.7672    34.1372 </r>
       <r>    -3.8414    32.7985    35.8856 </r>
       <r>    -3.7881    59.8240    39.0747 </r>
       <r>    -3.7348    16.6979    39.9649 </r>
       <r>    -3.6815     0.6556    39.9998 </r>
       <r>    -3.6282     0.0032    40.0000 </r>
       <r>    -3.5749     0.0000    40.0000 </r>
       <r>    -3.5216     0.0000    40.0000 </r>
       <r>    -3.4683     0.0046    40.0002 </r>
       <r>    -3.4150     0.8213    40.0440 </r>
       <r>    -3.3617    18.7378    41.0429 </r>
       <r>    -3.3084    60.6746    44.2774 </r>
       <r>    -3.2550    30.1128    45.8827 </r>
       <r>    -3.2017     2.1808    45.9989 </r>
       <r>    -3.1484     0.0205    46.0000 </r>
       <r>    -3.0951     0.0073    46.0004 </r>
       <r>    -3.0418     1.1183    46.0600 </r>
       <r>    -2.9885    21.8982    47.2274 </r>
       <r>    -2.9352    61.4312    50.5022 </r>
       <r>    -2.8819    27.6217    51.9746 </r>
       <r>    -2.8286    32.9654    53.7320 </r>
       <r>    -2.7753   118.0220    60.0235 </r>
       <r>    -2.7220    68.6002    63.6805 </r>
       <r>    -2.6687     5.9250    63.9964 </r>
       <r>    -2.6153     0.0680    64.0000 </r>
       <r>    -2.5620     0.0001    64.0000 </r>
       <r>    -2.5087     0.0000    64.0000 </r>
       <r>    -2.4554     0.0000    64.0000 </r>
       <r>    -2.4021     0.0000    64.0000 </r>
       <r>    -2.3488     0.0000    64.0000 </r>
       <r>    -2.2955     0.0000    64.0000 </r>
       <r>    -2.2422     0.0000    64.0000 </r>
       <r>    -2.1889     0.0000    64.0000 </r>
       <r>    -2.1356     0.0000    64.0000 </r>
       <r>    -2.0823     0.0000    64.0000 </r>
       <r>    -2.0290     0.0000    64.0000 </r>
       <r>    -1.9756     0.0000    64.0000 </r>
       <r>    -1.9223     0.0000    64.0000 </r>
       <r>    -1.8690     0.0000    64.0000 </r>
       <r>    -1.8157     0.0000    64.0000 </r>
       <r>    -1.7624     0.0000    64.0000 </r>
       <r>    -1.7091     0.0000    64.0000 </r>
       <r>    -1.6558     0.0000    64.0000 </r>
       <r>    -1.6025     0.0000    64.0000 </r>
       <r>    -1.5492     0.0000    64.0000 </r>
       <r>    -1.4959     0.0000    64.0000 </r>
       <r>    -1.4426     0.0000    64.0000 </r>
       <r>    -1.3893     0.0088    64.0005 </r>
       <r>    -1.3359     1.5944    64.0855 </r>
       <r>    -1.2826    36.8298    66.0488 </r>
       <r>    -1.2293   122.5390    72.5812 </r>
       <r>    -1.1760    86.6374    77.1997 </r>
       <r>    -1.1227    66.6569    80.7531 </r>
       <r>    -1.0694    39.1350    82.8393 </r>
       <r>    -1.0161    63.7452    86.2374 </r>
       <r>    -0.9628    67.0137    89.8098 </r>
       <r>    -0.9095    62.0111    93.1156 </r>
       <r>    -0.8562    15.9829    93.9676 </r>
       <r>    -0.8029     0.6051    93.9998 </r>
       <r>    -0.7495     0.0029    94.0000 </r>
       <r>    -0.6962     0.0000    94.0000 </r>
       <r>    -0.6429     0.0000    94.0000 </r>
       <r>    -0.5896     0.0000    94.0000 </r>
       <r>    -0.5363     0.0000    94.0000 </r>
       <r>    -0.4830     0.0000    94.0000 </r>
       <r>    -0.4297     0.0000    94.0000 </r>
       <r>    -0.3764     0.0036    94.0002 </r>
       <r>    -0.3231     0.4931    94.0265 </r>
       <r>    -0.2698     8.6768    94.4890 </r>
       <r>    -0.2165    33.1191    96.2546 </r>
       <r>    -0.1632    99.7371   101.5714 </r>
       <r>    -0.1098   102.8311   107.0532 </r>
       <r>    -0.0565    17.3550   107.9783 </r>
       <r>    -0.0032     0.4051   107.9999 </r>
       <r>     0.0501     0.0012   108.0000 </r>
       <r>     0.1034     0.0000   108.0000 </r>
       <r>     0.1567     0.0000   108.0000 </r>
       <r>     0.2100     0.0000   108.0000 </r>
       <r>     0.2633     0.0000   108.0000 </r>
       <r>     0.3166     0.0000   108.0000 </r>
       <r>     0.3699     0.0000   108.0000 </r>
       <r>     0.4232     0.0000   108.0000 </r>
       <r>     0.4765     0.0000   108.0000 </r>
       <r>     0.5299     0.0000   108.0000 </r>
       <r>     0.5832     0.0123   108.0007 </r>
       <r>     0.6365     1.5801   108.0849 </r>
       <r>     0.6898    25.9718   109.4694 </r>
       <r>     0.7431    61.5296   112.7495 </r>
       <r>     0.7964    22.2969   113.9381 </r>
       <r>     0.8497     1.1541   113.9996 </r>
       <r>     0.9030     0.0102   114.0001 </r>
       <r>     0.9563     0.5770   114.0309 </r>
       <r>     1.0096    15.7174   114.8688 </r>
       <r>     1.0629    59.4238   118.0366 </r>
       <r>     1.1162    33.9791   119.8479 </r>
       <r>     1.1696     2.8222   119.9984 </r>
       <r>     1.2229     0.0303   120.0000 </r>
       <r>     1.2762     0.0000   120.0000 </r>
       <r>     1.3295     0.0000   120.0000 </r>
       <r>     1.3828     0.0000   120.0000 </r>
       <r>     1.4361     0.0000   120.0000 </r>
       <r>     1.4894     0.0003   120.0000 </r>
       <r>     1.5427     0.1424   120.0076 </r>
       <r>     1.5960     9.5222   120.5152 </r>
       <r>     1.6493    87.0085   125.1535 </r>
       <r>     1.7026   145.8430   132.9282 </r>
       <r>     1.7560    79.9545   137.1904 </r>
       <r>     1.8093    14.7103   137.9746 </r>
       <r>     1.8626     0.4741   137.9999 </r>
       <r>     1.9159     0.0019   138.0000 </r>
       <r>     1.9692     0.0000   138.0000 </r>
       <r>     2.0225     0.0000   138.0000 </r>
       <r>     2.0758     0.0000   138.0000 </r>
       <r>     2.1291     0.0051   138.0003 </r>
       <r>     2.1824     0.8926   138.0479 </r>
       <r>     2.2357    19.7134   139.0987 </r>
       <r>     2.2890    63.5258   142.4852 </r>
       <r>     2.3423    74.9539   146.4809 </r>
       <r>     2.3957   146.8625   154.3099 </r>
       <r>     2.4490   113.0685   160.3374 </r>
       <r>     2.5023    29.5239   161.9113 </r>
       <r>     2.5556     1.6511   161.9993 </r>
       <r>     2.6089     0.0558   162.0023 </r>
       <r>     2.6622     4.5048   162.2424 </r>
       <r>     2.7155    61.1882   165.5043 </r>
       <r>     2.7688   121.1256   171.9613 </r>
       <r>     2.8221    36.6649   173.9159 </r>
       <r>     2.8754     1.6014   174.0012 </r>
       <r>     2.9287     3.5201   174.1889 </r>
       <r>     2.9820    52.7748   177.0022 </r>
       <r>     3.0354   121.2182   183.4642 </r>
       <r>     3.0887    45.0176   185.8640 </r>
       <r>     3.1420     2.5317   185.9990 </r>
       <r>     3.1953     0.0193   186.0000 </r>
       <r>     3.2486     0.0849   186.0045 </r>
       <r>     3.3019     6.1221   186.3309 </r>
       <r>     3.3552    64.7725   189.7838 </r>
       <r>     3.4085   121.1573   196.2425 </r>
       <r>     3.4618    81.2449   200.5736 </r>
       <r>     3.5151    54.6680   203.4878 </r>
       <r>     3.5684     9.3819   203.9880 </r>
       <r>     3.6217     0.3137   204.0047 </r>
       <r>     3.6751     7.1419   204.3854 </r>
       <r>     3.7284    81.2845   208.7186 </r>
       <r>     3.7817   165.2415   217.5273 </r>
       <r>     3.8350    75.9045   221.5737 </r>
       <r>     3.8883     7.8597   221.9927 </r>
       <r>     3.9416     0.2337   222.0052 </r>
       <r>     3.9949     3.7992   222.2077 </r>
       <r>     4.0482    27.0999   223.6523 </r>
       <r>     4.1015    65.7510   227.1574 </r>
       <r>     4.1548    47.2213   229.6747 </r>
       <r>     4.2081     6.0073   229.9950 </r>
       <r>     4.2614     1.4739   230.0735 </r>
       <r>     4.3148    24.9282   231.4024 </r>
       <r>     4.3681    77.3692   235.5269 </r>
       <r>     4.4214    82.9841   239.9506 </r>
       <r>     4.4747    35.9791   241.8686 </r>
       <r>     4.5280    14.5819   242.6459 </r>
       <r>     4.5813    40.3228   244.7955 </r>
       <r>     4.6346    21.0021   245.9151 </r>
       <r>     4.6879     1.5780   245.9992 </r>
       <r>     4.7412     0.0308   246.0008 </r>
       <r>     4.7945     1.8474   246.0993 </r>
       <r>     4.8478    28.0476   247.5945 </r>
       <r>     4.9012    61.3018   250.8624 </r>
       <r>     4.9545    20.3775   251.9487 </r>
       <r>     5.0078     0.9569   251.9997 </r>
       <r>     5.0611     0.0056   252.0000 </r>
       <r>     5.1144     0.0000   252.0000 </r>
       <r>     5.1677     0.0000   252.0000 </r>
       <r>     5.2210     0.0103   252.0006 </r>
       <r>     5.2743     1.2343   252.0663 </r>
       <r>     5.3276    18.7829   253.0676 </r>
       <r>     5.3809    40.9071   255.2483 </r>
       <r>     5.4342    13.4741   255.9666 </r>
       <r>     5.4875     0.6227   255.9998 </r>
       <r>     5.5409     0.0036   256.0000 </r>
       <r>     5.5942     0.0000   256.0000 </r>
       <r>     5.6475     0.0000   256.0000 </r>
       <r>     5.7008     0.0000   256.0000 </r>
       <r>     5.7541     0.0000   256.0000 </r>
       <r>     5.8074     0.0000   256.0000 </r>
       <r>     5.8607     0.0000   256.0000 </r>
       <r>     5.9140     0.0000   256.0000 </r>
       <r>     5.9673     0.0000   256.0000 </r>
       <r>     6.0206     0.0000   256.0000 </r>
       <r>     6.0739     0.0000   256.0000 </r>
       <r>     6.1272     0.0000   256.0000 </r>
       <r>     6.1806     0.0000   256.0000 </r>
       <r>     6.2339     0.0000   256.0000 </r>
       <r>     6.2872     0.0000   256.0000 </r>
       <r>     6.3405     0.0000   256.0000 </r>
       <r>     6.3938     0.0001   256.0000 </r>
       <r>     6.4471     0.0575   256.0031 </r>
       <r>     6.5004     4.1766   256.2257 </r>
       <r>     6.5537    39.8859   258.3520 </r>
       <r>     6.6070    56.1409   261.3448 </r>
       <r>     6.6603    11.9410   261.9813 </r>
       <r>     6.7136     0.3491   261.9999 </r>
       <r>     6.7669     0.0013   262.0000 </r>
       <r>     6.8203     0.0000   262.0000 </r>
       <r>     6.8736     0.0125   262.0007 </r>
       <r>     6.9269     1.5979   262.0858 </r>
       <r>     6.9802    26.1456   263.4796 </r>
       <r>     7.0335    61.5443   266.7605 </r>
       <r>     7.0868    22.1136   267.9393 </r>
       <r>     7.1401     1.2831   268.0077 </r>
       <r>     7.1934     4.6257   268.2543 </r>
       <r>     7.2467    19.3721   269.2870 </r>
       <r>     7.3000    12.2363   269.9393 </r>
       <r>     7.3533     1.1313   269.9996 </r>
       <r>     7.4067     0.9977   270.0528 </r>
       <r>     7.4600    20.6610   271.1542 </r>
       <r>     7.5133    61.5057   274.4330 </r>
       <r>     7.5666    35.1697   276.3078 </r>
       <r>     7.6199    50.8460   279.0183 </r>
       <r>     7.6732    48.7363   281.6164 </r>
       <r>     7.7265    16.4814   282.4950 </r>
       <r>     7.7798    77.6395   286.6338 </r>
       <r>     7.8331   109.9574   292.4955 </r>
       <r>     7.8864    27.1658   293.9437 </r>
       <r>     7.9397     2.2481   294.0635 </r>
       <r>     7.9930    31.8487   295.7613 </r>
       <r>     8.0464   124.2070   302.3826 </r>
       <r>     8.0997    88.1534   307.0819 </r>
       <r>     8.1530    16.3498   307.9535 </r>
       <r>     8.2063     1.5497   308.0361 </r>
       <r>     8.2596    17.1579   308.9508 </r>
       <r>     8.3129    60.1940   312.1596 </r>
       <r>     8.3662    32.0422   313.8678 </r>
       <r>     8.4195     4.5060   314.1080 </r>
       <r>     8.4728    41.4869   316.3196 </r>
       <r>     8.5261   132.0406   323.3585 </r>
       <r>     8.5794    77.4365   327.4865 </r>
       <r>     8.6327     9.4017   327.9877 </r>
       <r>     8.6861     0.2304   328.0000 </r>
       <r>     8.7394     0.0009   328.0000 </r>
       <r>     8.7927     0.0000   328.0000 </r>
       <r>     8.8460     0.0000   328.0000 </r>
       <r>     8.8993     0.0000   328.0000 </r>
       <r>     8.9526     0.0000   328.0000 </r>
       <r>     9.0059     0.0000   328.0000 </r>
       <r>     9.0592     0.0000   328.0000 </r>
       <r>     9.1125     0.0000   328.0000 </r>
       <r>     9.1658     0.0000   328.0000 </r>
       <r>     9.2191     0.0000   328.0000 </r>
       <r>     9.2724     0.0000   328.0000 </r>
      </set>
     </set>
    </array>
   </total>
  </dos>
 </calculation>
 <structure name="finalpos" >
  <crystal>
   <varray name="basis" >
    <v>      10.93252578       0.00000000       0.00000000 </v>
    <v>       0.00000000      10.93252578       0.00000000 </v>
    <v>       0.00000000       0.00000000      10.93252578 </v>
   </varray>
   <i name="volume">   1306.65679237 </i>
   <varray name="rec_basis" >
    <v>       0.09147017       0.00000000       0.00000000 </v>
    <v>       0.00000000       0.09147017       0.00000000 </v>
    <v>       0.00000000       0.00000000       0.09147017 </v>
   </varray>
  </crystal>
  <varray name="positions" >
   <v>       0.44024411       0.43750000       0.43750000 </v>
   <v>       0.93750000       0.43750000       0.43750000 </v>
   <v>       0.43750000       0.93750000       0.43750000 </v>
   <v>       0.93750000       0.93750000       0.43750000 </v>
   <v>       0.43750000       0.43750000       0.93750000 </v>
   <v>       0.93750000       0.43750000       0.93750000 </v>
   <v>       0.43750000       0.93750000       0.93750000 </v>
   <v>       0.93750000       0.93750000       0.93750000 </v>
   <v>       0.43750000       0.18750000       0.18750000 </v>
   <v>       0.93750000       0.18750000       0.18750000 </v>
   <v>       0.43750000       0.68750000       0.18750000 </v>
   <v>       0.93750000       0.68750000       0.18750000 </v>
   <v>       0.43750000       0.18750000       0.68750000 </v>
   <v>       0.93750000       0.18750000       0.68750000 </v>
   <v>       0.43750000       0.68750000       0.68750000 </v>
   <v>       0.93750000       0.68750000       0.68750000 </v>
   <v>       0.18750000       0.43750000       0.18750000 </v>
   <v>       0.68750000       0.43750000       0.18750000 </v>
   <v>       0.18750000       0.93750000       0.18750000 </v>
   <v>       0.68750000       0.93750000       0.18750000 </v>
   <v>       0.18750000       0.43750000       0.68750000 </v>
   <v>       0.68750000       0.43750000       0.68750000 </v>
   <v>       0.18750000       0.93750000       0.68750000 </v>
   <v>       0.68750000       0.93750000       0.68750000 </v>
   <v>       0.18750000       0.18750000       0.43750000 </v>
   <v>       0.68750000       0.18750000       0.43750000 </v>
   <v>       0.18750000       0.68750000       0.43750000 </v>
   <v>       0.68750000       0.68750000       0.43750000 </v>
   <v>       0.18750000       0.18750000       0.93750000 </v>
   <v>       0.68750000       0.18750000       0.93750000 </v>
   <v>       0.18750000       0.68750000       0.93750000 </v>
   <v>       0.68750000       0.68750000       0.93750000 </v>
   <v>       0.06250000       0.06250000       0.06250000 </v>
   <v>       0.56250000       0.06250000       0.06250000 </v>
   <v>       0.06250000       0.56250000       0.06250000 </v>
   <v>       0.56250000       0.56250000       0.06250000 </v>
   <v>       0.06250000       0.06250000       0.56250000 </v>
   <v>       0.56250000       0.06250000       0.56250000 </v>
   <v>       0.06250000       0.56250000       0.56250000 </v>
   <v>       0.56524411       0.56250000       0.56250000 </v>
   <v>       0.06250000       0.31250000       0.31250000 </v>
   <v>       0.56250000       0.31250000       0.31250000 </v>
   <v>       0.06250000       0.81250000       0.31250000 </v>
   <v>       0.56250000       0.81250000       0.31250000 </v>
   <v>       0.06250000       0.31250000       0.81250000 </v>
   <v>       0.56250000       0.31250000       0.81250000 </v>
   <v>       0.06250000       0.81250000       0.81250000 </v>
   <v>       0.56250000       0.81250000       0.81250000 </v>
   <v>       0.31250000       0.06250000       0.31250000 </v>
   <v>       0.81250000       0.06250000       0.31250000 </v>
   <v>       0.31250000       0.56250000       0.31250000 </v>
   <v>       0.81250000       0.56250000       0.31250000 </v>
   <v>       0.31250000       0.06250000       0.81250000 </v>
   <v>       0.81250000       0.06250000       0.81250000 </v>
   <v>       0.31250000       0.56250000       0.81250000 </v>
   <v>       0.81250000       0.56250000       0.81250000 </v>
   <v>       0.31250000       0.31250000       0.06250000 </v>
   <v>       0.81250000       0.31250000       0.06250000 </v>
   <v>       0.31250000       0.81250000       0.06250000 </v>
   <v>       0.81250000       0.81250000       0.06250000 </v>
   <v>       0.31250000       0.31250000       0.56250000 </v>
   <v>       0.81250000       0.31250000       0.56250000 </v>
   <v>       0.31250000       0.81250000       0.56250000 </v>
   <v>       0.81250000       0.81250000       0.56250000 </v>
  </varray>
 </structure>
</modeling>
