
     Program PWSCF v.5.3.0 (svn rev. 11974) starts on  3Feb2016 at 13:46:13 

     This program is part of the open-source Quantum ESPRESSO suite
     for quantum simulation of materials; please cite
         "P. Giannozzi et al., J. Phys.:Condens. Matter 21 395502 (2009);
          URL http://www.quantum-espresso.org", 
     in publications or presentations arising from this work. More details at
     http://www.quantum-espresso.org/quote

     Parallel version (MPI), running on    16 processors
     R & G space division:  proc/nbgrp/npool/nimage =      16
     Reading input from Si.in

     Current dimensions of program PWSCF are:
     Max number of different atomic species (ntypx) = 10
     Max number of k-points (npk) =  40000
     Max angular momentum in pseudopotentials (lmaxx) =  3
               file Si.pbe-n-kjpaw_psl.0.1.UPF: wavefunction(s)  3S renormalized

     Subspace diagonalization in iterative solution of the eigenvalue problem:
     one sub-group per k-point group (pool) will be used
     scalapack distributed-memory algorithm (size of sub-group:  2*  2 procs)

 
     Parallelization info
     --------------------
     sticks:   dense  smooth     PW     G-vecs:    dense   smooth      PW
     Min         424     424    109                26332    26332    3467
     Max         425     425    110                26336    26336    3472
     Sum        6785    6785   1757               421349   421349   55515
 


     bravais-lattice index     =            0
     lattice parameter (alat)  =      20.6591  a.u.
     unit-cell volume          =    8817.2783 (a.u.)^3
     number of atoms/cell      =           64
     number of atomic types    =            1
     number of electrons       =       256.00
     number of Kohn-Sham states=          154
     kinetic-energy cutoff     =      50.0000  Ry
     charge density cutoff     =     200.0000  Ry
     convergence threshold     =      1.0E-09
     mixing beta               =       0.7000
     number of iterations used =            8  plain     mixing
     Exchange-correlation      =  SLA  PW   PBX  PBC ( 1  4  3  4 0 0)

     celldm(1)=  20.659106  celldm(2)=   0.000000  celldm(3)=   0.000000
     celldm(4)=   0.000000  celldm(5)=   0.000000  celldm(6)=   0.000000

     crystal axes: (cart. coord. in units of alat)
               a(1) = (   1.000000   0.000000   0.000000 )  
               a(2) = (   0.000000   1.000000   0.000000 )  
               a(3) = (   0.000000   0.000000   1.000000 )  

     reciprocal axes: (cart. coord. in units 2 pi/alat)
               b(1) = (  1.000000  0.000000  0.000000 )  
               b(2) = (  0.000000  1.000000  0.000000 )  
               b(3) = (  0.000000  0.000000  1.000000 )  


     PseudoPot. # 1 for Si read from file:
     /home/togo/espresso/pseudo/Si.pbe-n-kjpaw_psl.0.1.UPF
     MD5 check sum: b9d333a40e496bef61db012f150758bf
     Pseudo is Projector augmented-wave + core cor, Zval =  4.0
     Generated using "atomic" code by A. Dal Corso  v.5.0.2 svn rev. 9415
     Shape of augmentation charge: PSQ
     Using radial grid of 1141 points,  4 beta functions with: 
                l(1) =   0
                l(2) =   0
                l(3) =   1
                l(4) =   1
     Q(r) pseudized with 0 coefficients 


     atomic species   valence    mass     pseudopotential
        Si             4.00    28.08550     Si( 1.00)

     No symmetry found



   Cartesian axes

     site n.     atom                  positions (alat units)
         1           Si  tau(   1) = (   0.4404043   0.4375000   0.4375000  )
         2           Si  tau(   2) = (   0.9375000   0.4375000   0.4375000  )
         3           Si  tau(   3) = (   0.4375000   0.9375000   0.4375000  )
         4           Si  tau(   4) = (   0.9375000   0.9375000   0.4375000  )
         5           Si  tau(   5) = (   0.4375000   0.4375000   0.9375000  )
         6           Si  tau(   6) = (   0.9375000   0.4375000   0.9375000  )
         7           Si  tau(   7) = (   0.4375000   0.9375000   0.9375000  )
         8           Si  tau(   8) = (   0.9375000   0.9375000   0.9375000  )
         9           Si  tau(   9) = (   0.4375000   0.1875000   0.1875000  )
        10           Si  tau(  10) = (   0.9375000   0.1875000   0.1875000  )
        11           Si  tau(  11) = (   0.4375000   0.6875000   0.1875000  )
        12           Si  tau(  12) = (   0.9375000   0.6875000   0.1875000  )
        13           Si  tau(  13) = (   0.4375000   0.1875000   0.6875000  )
        14           Si  tau(  14) = (   0.9375000   0.1875000   0.6875000  )
        15           Si  tau(  15) = (   0.4375000   0.6875000   0.6875000  )
        16           Si  tau(  16) = (   0.9375000   0.6875000   0.6875000  )
        17           Si  tau(  17) = (   0.1875000   0.4375000   0.1875000  )
        18           Si  tau(  18) = (   0.6875000   0.4375000   0.1875000  )
        19           Si  tau(  19) = (   0.1875000   0.9375000   0.1875000  )
        20           Si  tau(  20) = (   0.6875000   0.9375000   0.1875000  )
        21           Si  tau(  21) = (   0.1875000   0.4375000   0.6875000  )
        22           Si  tau(  22) = (   0.6875000   0.4375000   0.6875000  )
        23           Si  tau(  23) = (   0.1875000   0.9375000   0.6875000  )
        24           Si  tau(  24) = (   0.6875000   0.9375000   0.6875000  )
        25           Si  tau(  25) = (   0.1875000   0.1875000   0.4375000  )
        26           Si  tau(  26) = (   0.6875000   0.1875000   0.4375000  )
        27           Si  tau(  27) = (   0.1875000   0.6875000   0.4375000  )
        28           Si  tau(  28) = (   0.6875000   0.6875000   0.4375000  )
        29           Si  tau(  29) = (   0.1875000   0.1875000   0.9375000  )
        30           Si  tau(  30) = (   0.6875000   0.1875000   0.9375000  )
        31           Si  tau(  31) = (   0.1875000   0.6875000   0.9375000  )
        32           Si  tau(  32) = (   0.6875000   0.6875000   0.9375000  )
        33           Si  tau(  33) = (   0.0625000   0.0625000   0.0625000  )
        34           Si  tau(  34) = (   0.5625000   0.0625000   0.0625000  )
        35           Si  tau(  35) = (   0.0625000   0.5625000   0.0625000  )
        36           Si  tau(  36) = (   0.5625000   0.5625000   0.0625000  )
        37           Si  tau(  37) = (   0.0625000   0.0625000   0.5625000  )
        38           Si  tau(  38) = (   0.5625000   0.0625000   0.5625000  )
        39           Si  tau(  39) = (   0.0625000   0.5625000   0.5625000  )
        40           Si  tau(  40) = (   0.5625000   0.5654043   0.5625000  )
        41           Si  tau(  41) = (   0.0625000   0.3125000   0.3125000  )
        42           Si  tau(  42) = (   0.5625000   0.3125000   0.3125000  )
        43           Si  tau(  43) = (   0.0625000   0.8125000   0.3125000  )
        44           Si  tau(  44) = (   0.5625000   0.8125000   0.3125000  )
        45           Si  tau(  45) = (   0.0625000   0.3125000   0.8125000  )
        46           Si  tau(  46) = (   0.5625000   0.3125000   0.8125000  )
        47           Si  tau(  47) = (   0.0625000   0.8125000   0.8125000  )
        48           Si  tau(  48) = (   0.5625000   0.8125000   0.8125000  )
        49           Si  tau(  49) = (   0.3125000   0.0625000   0.3125000  )
        50           Si  tau(  50) = (   0.8125000   0.0625000   0.3125000  )
        51           Si  tau(  51) = (   0.3125000   0.5625000   0.3125000  )
        52           Si  tau(  52) = (   0.8125000   0.5625000   0.3125000  )
        53           Si  tau(  53) = (   0.3125000   0.0625000   0.8125000  )
        54           Si  tau(  54) = (   0.8125000   0.0625000   0.8125000  )
        55           Si  tau(  55) = (   0.3125000   0.5625000   0.8125000  )
        56           Si  tau(  56) = (   0.8125000   0.5625000   0.8125000  )
        57           Si  tau(  57) = (   0.3125000   0.3125000   0.0625000  )
        58           Si  tau(  58) = (   0.8125000   0.3125000   0.0625000  )
        59           Si  tau(  59) = (   0.3125000   0.8125000   0.0625000  )
        60           Si  tau(  60) = (   0.8125000   0.8125000   0.0625000  )
        61           Si  tau(  61) = (   0.3125000   0.3125000   0.5625000  )
        62           Si  tau(  62) = (   0.8125000   0.3125000   0.5625000  )
        63           Si  tau(  63) = (   0.3125000   0.8125000   0.5625000  )
        64           Si  tau(  64) = (   0.8125000   0.8125000   0.5625000  )

     number of k points=     4  gaussian smearing, width (Ry)=  0.0100
                       cart. coord. in units 2pi/alat
        k(    1) = (   0.2500000   0.2500000   0.2500000), wk =   0.5000000
        k(    2) = (  -0.2500000  -0.2500000   0.2500000), wk =   0.5000000
        k(    3) = (  -0.2500000   0.2500000  -0.2500000), wk =   0.5000000
        k(    4) = (   0.2500000  -0.2500000  -0.2500000), wk =   0.5000000

     Dense  grid:   421349 G-vectors     FFT dimensions: (  96,  96,  96)

     Largest allocated arrays     est. size (Mb)     dimensions
        Kohn-Sham Wavefunctions         7.73 Mb     (    3289,  154)
        NL pseudopotentials            25.70 Mb     (    3289,  512)
        Each V/rho on FFT grid          0.84 Mb     (   55296)
        Each G-vector array             0.20 Mb     (   26336)
        G-vector shells                 0.01 Mb     (    1719)
     Largest temporary arrays     est. size (Mb)     dimensions
        Auxiliary wavefunctions        30.91 Mb     (    3289,  616)
        Each subspace H/S matrix        1.45 Mb     (     308,  308)
        Each <psi_i|beta_j> matrix      1.20 Mb     (     512,  154)
        Arrays for rho mixing           6.75 Mb     (   55296,    8)

     Check: negative/imaginary core charge=   -0.000001    0.000000

     Initial potential from superposition of free atoms

     starting charge  255.96421, renormalised to  256.00000
     Starting wfc are  256 randomized atomic wfcs
     Checking if some PAW data can be deallocated... 

     total cpu time spent up to now is       28.4 secs

     per-process dynamical memory:   114.8 Mb

     Self-consistent Calculation

     iteration #  1     ecut=    50.00 Ry     beta=0.70
     Davidson diagonalization with overlap
     ethr =  1.00E-02,  avg # of iterations =  3.0

     Threshold (ethr) on eigenvalues was too large:
     Diagonalizing with lowered threshold

     Davidson diagonalization with overlap
     ethr =  7.00E-04,  avg # of iterations =  1.0

     total cpu time spent up to now is       63.4 secs

     total energy              =   -2990.45710622 Ry
     Harris-Foulkes estimate   =   -2990.87696026 Ry
     estimated scf accuracy    <       1.77318606 Ry

     iteration #  2     ecut=    50.00 Ry     beta=0.70
     Davidson diagonalization with overlap
     ethr =  6.93E-04,  avg # of iterations =  1.0

     total cpu time spent up to now is       76.6 secs

     total energy              =   -2990.52377053 Ry
     Harris-Foulkes estimate   =   -2990.52762765 Ry
     estimated scf accuracy    <       0.07630020 Ry

     iteration #  3     ecut=    50.00 Ry     beta=0.70
     Davidson diagonalization with overlap
     ethr =  2.98E-05,  avg # of iterations = 10.5

     total cpu time spent up to now is      105.9 secs

     total energy              =   -2990.53082016 Ry
     Harris-Foulkes estimate   =   -2990.53150319 Ry
     estimated scf accuracy    <       0.00184424 Ry

     iteration #  4     ecut=    50.00 Ry     beta=0.70
     Davidson diagonalization with overlap
     ethr =  7.20E-07,  avg # of iterations =  6.8

     total cpu time spent up to now is      143.0 secs

     total energy              =   -2990.53068596 Ry
     Harris-Foulkes estimate   =   -2990.53273241 Ry
     estimated scf accuracy    <       0.00681525 Ry

     iteration #  5     ecut=    50.00 Ry     beta=0.70
     Davidson diagonalization with overlap
     ethr =  7.20E-07,  avg # of iterations =  4.8

     total cpu time spent up to now is      166.1 secs

     total energy              =   -2990.53166344 Ry
     Harris-Foulkes estimate   =   -2990.53173269 Ry
     estimated scf accuracy    <       0.00018299 Ry

     iteration #  6     ecut=    50.00 Ry     beta=0.70
     Davidson diagonalization with overlap
     ethr =  7.15E-08,  avg # of iterations =  3.0

     total cpu time spent up to now is      184.4 secs

     total energy              =   -2990.53169793 Ry
     Harris-Foulkes estimate   =   -2990.53171626 Ry
     estimated scf accuracy    <       0.00005019 Ry

     iteration #  7     ecut=    50.00 Ry     beta=0.70
     Davidson diagonalization with overlap
     ethr =  1.96E-08,  avg # of iterations =  2.0

     total cpu time spent up to now is      201.3 secs

     total energy              =   -2990.53170704 Ry
     Harris-Foulkes estimate   =   -2990.53170843 Ry
     estimated scf accuracy    <       0.00000317 Ry

     iteration #  8     ecut=    50.00 Ry     beta=0.70
     Davidson diagonalization with overlap
     ethr =  1.24E-09,  avg # of iterations =  3.0

     total cpu time spent up to now is      222.7 secs

     total energy              =   -2990.53170801 Ry
     Harris-Foulkes estimate   =   -2990.53170820 Ry
     estimated scf accuracy    <       0.00000047 Ry

     iteration #  9     ecut=    50.00 Ry     beta=0.70
     Davidson diagonalization with overlap
     ethr =  1.82E-10,  avg # of iterations =  3.0

     total cpu time spent up to now is      240.4 secs

     total energy              =   -2990.53170801 Ry
     Harris-Foulkes estimate   =   -2990.53170812 Ry
     estimated scf accuracy    <       0.00000018 Ry

     iteration # 10     ecut=    50.00 Ry     beta=0.70
     Davidson diagonalization with overlap
     ethr =  6.85E-11,  avg # of iterations =  2.0

     total cpu time spent up to now is      256.5 secs

     total energy              =   -2990.53170799 Ry
     Harris-Foulkes estimate   =   -2990.53170804 Ry
     estimated scf accuracy    <       0.00000004 Ry

     iteration # 11     ecut=    50.00 Ry     beta=0.70
     Davidson diagonalization with overlap
     ethr =  1.49E-11,  avg # of iterations =  2.0

     total cpu time spent up to now is      273.5 secs

     total energy              =   -2990.53170800 Ry
     Harris-Foulkes estimate   =   -2990.53170800 Ry
     estimated scf accuracy    <          1.6E-09 Ry

     iteration # 12     ecut=    50.00 Ry     beta=0.70
     Davidson diagonalization with overlap
     ethr =  6.12E-13,  avg # of iterations =  3.0

     total cpu time spent up to now is      298.4 secs

     total energy              =   -2990.53170800 Ry
     Harris-Foulkes estimate   =   -2990.53170800 Ry
     estimated scf accuracy    <          1.5E-09 Ry

     iteration # 13     ecut=    50.00 Ry     beta=0.70
     Davidson diagonalization with overlap
     ethr =  5.67E-13,  avg # of iterations =  2.5

     total cpu time spent up to now is      316.5 secs

     End of self-consistent calculation

          k = 0.2500 0.2500 0.2500 ( 52563 PWs)   bands (ev):

    -5.6250  -5.0989  -5.0963  -5.0937  -4.5994  -4.5967  -4.5940  -4.1631
    -4.0660  -4.0632  -4.0608  -3.6537  -3.6489  -3.6470  -3.6469  -3.6451
    -3.6404  -3.4589  -3.4548  -3.4505  -2.9617  -2.9584  -2.9554  -2.5930
    -2.5891  -2.5856  -2.4282  -2.4237  -2.4208  -2.4207  -2.4179  -2.4131
    -0.8883  -0.8817  -0.8781  -0.8780  -0.8748  -0.8688  -0.7839  -0.7804
    -0.7768  -0.6674  -0.6622  -0.6569  -0.5776  -0.5761  -0.5747   0.1263
     0.2015   0.2073   0.2106   0.2109   0.2142   0.2201   1.0817   1.0854
     1.0891   1.4145   1.4183   1.4222   2.0238   2.0272   2.0290   2.0295
     2.0310   2.0340   2.0859   2.0883   2.0910   2.6383   2.6401   2.6418
     2.7373   2.7396   2.7432   2.7434   2.7463   2.7485   2.7927   2.7966
     2.8007   3.1012   3.1063   3.1076   3.1076   3.1089   3.1139   3.3690
     3.3720   3.3743   3.3821   3.3866   3.3899   3.7319   3.7349   3.7377
     3.7538   3.7565   3.7589   3.8360   3.8394   3.8431   4.1090   4.1119
     4.1141   4.1144   4.1167   4.1192   4.1499   4.1534   4.1582   4.4129
     4.4679   4.4708   4.4745   4.7104   4.7145   4.7184   4.7774   4.7788
     4.7806   4.9319   4.9406   5.2384   5.2434   5.2491   5.7191   5.7289
     6.9324   6.9362   6.9400   7.3712   7.3768   7.3822   7.5987   7.8570
     7.8619   7.8666   7.9878   7.9919   7.9957   8.1482   8.1518   8.1541
     8.1656   8.1689   8.1732   8.3955   8.4010   8.4025   8.4026   8.4041
     8.4087   8.4479

          k =-0.2500-0.2500 0.2500 ( 52563 PWs)   bands (ev):

    -5.6250  -5.0999  -5.0963  -5.0928  -4.6003  -4.5967  -4.5931  -4.1630
    -4.0666  -4.0634  -4.0601  -3.6566  -3.6490  -3.6469  -3.6469  -3.6449
    -3.6377  -3.4589  -3.4548  -3.4504  -2.9618  -2.9585  -2.9553  -2.5930
    -2.5892  -2.5856  -2.4298  -2.4227  -2.4208  -2.4208  -2.4189  -2.4115
    -0.8870  -0.8791  -0.8781  -0.8780  -0.8770  -0.8703  -0.7840  -0.7803
    -0.7770  -0.6673  -0.6624  -0.6568  -0.5819  -0.5762  -0.5702   0.1263
     0.2020   0.2102   0.2107   0.2107   0.2113   0.2197   1.0808   1.0854
     1.0899   1.4144   1.4183   1.4222   2.0256   2.0267   2.0279   2.0306
     2.0314   2.0321   2.0861   2.0882   2.0910   2.6379   2.6400   2.6424
     2.7371   2.7405   2.7429   2.7436   2.7457   2.7487   2.7935   2.7971
     2.7995   3.1009   3.1066   3.1072   3.1080   3.1086   3.1140   3.3697
     3.3719   3.3733   3.3825   3.3862   3.3902   3.7301   3.7348   3.7384
     3.7525   3.7564   3.7612   3.8363   3.8395   3.8428   4.1058   4.1122
     4.1140   4.1145   4.1162   4.1226   4.1504   4.1535   4.1578   4.4132
     4.4687   4.4711   4.4731   4.7108   4.7145   4.7179   4.7748   4.7787
     4.7835   4.9319   4.9406   5.2391   5.2434   5.2483   5.7191   5.7290
     6.9329   6.9361   6.9396   7.3733   7.3767   7.3801   7.5988   7.8586
     7.8618   7.8653   7.9877   7.9918   7.9957   8.1504   8.1517   8.1524
     8.1671   8.1687   8.1712   8.3939   8.3995   8.4024   8.4026   8.4055
     8.4104   8.4480

          k =-0.2500 0.2500-0.2500 ( 52563 PWs)   bands (ev):

    -5.6251  -5.0989  -5.0978  -5.0919  -4.5995  -4.5983  -4.5924  -4.1642
    -4.0664  -4.0650  -4.0596  -3.6519  -3.6499  -3.6474  -3.6472  -3.6458
    -3.6369  -3.4576  -3.4548  -3.4497  -2.9641  -2.9609  -2.9561  -2.5924
    -2.5890  -2.5852  -2.4257  -2.4244  -2.4211  -2.4205  -2.4197  -2.4113
    -0.8850  -0.8825  -0.8784  -0.8779  -0.8761  -0.8723  -0.7848  -0.7809
    -0.7782  -0.6680  -0.6625  -0.6613  -0.5776  -0.5748  -0.5630   0.1301
     0.2017   0.2058   0.2101   0.2104   0.2123   0.2152   1.0829   1.0864
     1.0941   1.4153   1.4184   1.4211   2.0246   2.0265   2.0281   2.0301
     2.0316   2.0331   2.0844   2.0874   2.0898   2.6402   2.6424   2.6436
     2.7352   2.7382   2.7417   2.7435   2.7456   2.7467   2.7914   2.7945
     2.7970   3.1029   3.1049   3.1064   3.1077   3.1108   3.1138   3.3689
     3.3701   3.3725   3.3824   3.3852   3.3875   3.7338   3.7351   3.7404
     3.7561   3.7597   3.7636   3.8357   3.8385   3.8409   4.1121   4.1137
     4.1139   4.1152   4.1213   4.1256   4.1495   4.1524   4.1554   4.4173
     4.4669   4.4679   4.4711   4.7096   4.7129   4.7151   4.7791   4.7813
     4.7912   4.9325   4.9375   5.2370   5.2411   5.2443   5.7188   5.7243
     6.9318   6.9338   6.9380   7.3733   7.3749   7.3798   7.5972   7.8577
     7.8593   7.8637   7.9892   7.9938   7.9963   8.1482   8.1506   8.1536
     8.1664   8.1678   8.1714   8.3976   8.4017   8.4024   8.4034   8.4094
     8.4105   8.4457

          k = 0.2500-0.2500-0.2500 ( 52563 PWs)   bands (ev):

    -5.6250  -5.1009  -5.0947  -5.0937  -4.6010  -4.5950  -4.5940  -4.1621
    -4.0674  -4.0615  -4.0600  -3.6573  -3.6482  -3.6466  -3.6465  -3.6440
    -3.6423  -3.4594  -3.4549  -3.4520  -2.9609  -2.9561  -2.9529  -2.5935
    -2.5892  -2.5861  -2.4298  -2.4218  -2.4210  -2.4205  -2.4173  -2.4158
    -0.8844  -0.8801  -0.8782  -0.8777  -0.8739  -0.8721  -0.7827  -0.7800
    -0.7760  -0.6632  -0.6621  -0.6561  -0.5888  -0.5776  -0.5748   0.1226
     0.2063   0.2093   0.2110   0.2113   0.2156   0.2201   1.0768   1.0843
     1.0878   1.4155   1.4182   1.4214   2.0249   2.0266   2.0284   2.0303
     2.0318   2.0334   2.0871   2.0892   2.0920   2.6366   2.6377   2.6402
     2.7397   2.7407   2.7431   2.7448   2.7480   2.7503   2.7962   2.7989
     2.8014   3.1013   3.1043   3.1074   3.1087   3.1102   3.1126   3.3711
     3.3736   3.3742   3.3847   3.3873   3.3904   3.7275   3.7343   3.7360
     3.7499   3.7536   3.7567   3.8383   3.8405   3.8432   4.1028   4.1072
     4.1134   4.1146   4.1150   4.1164   4.1523   4.1548   4.1578   4.4091
     4.4709   4.4739   4.4750   4.7138   4.7162   4.7195   4.7679   4.7764
     4.7783   4.9349   4.9400   5.2428   5.2459   5.2504   5.7235   5.7293
     6.9346   6.9387   6.9405   7.3738   7.3786   7.3802   7.6003   7.8604
     7.8644   7.8658   7.9872   7.9895   7.9941   8.1494   8.1516   8.1543
     8.1671   8.1706   8.1723   8.3940   8.3950   8.4016   8.4025   8.4034
     8.4069   8.4503

     the Fermi energy is     6.3275 ev

!    total energy              =   -2990.53170801 Ry
     Harris-Foulkes estimate   =   -2990.53170800 Ry
     estimated scf accuracy    <          4.9E-10 Ry

     total all-electron energy =    -37124.667261 Ry

     The total energy is the sum of the following terms:

     one-electron contribution =     178.60821791 Ry
     hartree contribution      =      35.70064141 Ry
     xc contribution           =    -391.44181179 Ry
     ewald contribution        =    -534.00751269 Ry
     one-center paw contrib.   =   -2279.39124284 Ry
     smearing contrib. (-TS)   =       0.00000000 Ry

     convergence has been achieved in  13 iterations

     Forces acting on atoms (Ry/au):

     atom    1 type  1   force =    -0.01318860    0.00404103    0.00279339
     atom    2 type  1   force =     0.00005915   -0.00005793    0.00005174
     atom    3 type  1   force =     0.00009298   -0.00001278    0.00003752
     atom    4 type  1   force =     0.00001925    0.00002796    0.00002975
     atom    5 type  1   force =     0.00010728   -0.00005840    0.00003701
     atom    6 type  1   force =     0.00002020    0.00025311    0.00002779
     atom    7 type  1   force =    -0.00044569    0.00002817    0.00002638
     atom    8 type  1   force =     0.00005477   -0.00002206    0.00003063
     atom    9 type  1   force =    -0.00055514    0.00013862    0.00013811
     atom   10 type  1   force =    -0.00003186   -0.00001232    0.00004072
     atom   11 type  1   force =    -0.00057444    0.00005038   -0.00007079
     atom   12 type  1   force =    -0.00002842    0.00026542    0.00001839
     atom   13 type  1   force =    -0.00056104   -0.00012207    0.00014754
     atom   14 type  1   force =    -0.00002527    0.00001653    0.00003650
     atom   15 type  1   force =    -0.00323225    0.00381036    0.00259535
     atom   16 type  1   force =    -0.00003998   -0.00006964    0.00004006
     atom   17 type  1   force =     0.00020427    0.00014400    0.00020204
     atom   18 type  1   force =     0.00018629   -0.00017217   -0.00027049
     atom   19 type  1   force =     0.00001264   -0.00003097   -0.00010779
     atom   20 type  1   force =     0.00001326    0.00001851    0.00005023
     atom   21 type  1   force =     0.00019452    0.00005163   -0.00027870
     atom   22 type  1   force =    -0.00224459    0.00392308   -0.00224270
     atom   23 type  1   force =     0.00001604    0.00003756    0.00004686
     atom   24 type  1   force =     0.00000478   -0.00000347   -0.00011425
     atom   25 type  1   force =     0.00025632    0.00025377   -0.00013501
     atom   26 type  1   force =     0.00027556   -0.00024591   -0.00015154
     atom   27 type  1   force =     0.00026990   -0.00028654    0.00005901
     atom   28 type  1   force =     0.00294286    0.00416115   -0.00258626
     atom   29 type  1   force =     0.00007448   -0.00009892   -0.00004005
     atom   30 type  1   force =     0.00006849    0.00010270   -0.00003448
     atom   31 type  1   force =     0.00007025    0.00033232   -0.00001794
     atom   32 type  1   force =     0.00009215   -0.00013752   -0.00002980
     atom   33 type  1   force =    -0.00002102    0.00005534    0.00003204
     atom   34 type  1   force =     0.00025549    0.00002032    0.00002788
     atom   35 type  1   force =     0.00002597   -0.00044775    0.00002580
     atom   36 type  1   force =    -0.00006042    0.00010459    0.00003933
     atom   37 type  1   force =     0.00002606    0.00001751    0.00002505
     atom   38 type  1   force =    -0.00006045    0.00006083    0.00004995
     atom   39 type  1   force =    -0.00001300    0.00009331    0.00003811
     atom   40 type  1   force =     0.00370819   -0.01341081    0.00239369
     atom   41 type  1   force =    -0.00000269    0.00000399   -0.00011519
     atom   42 type  1   force =     0.00404171   -0.00247301   -0.00248467
     atom   43 type  1   force =     0.00003528    0.00001812    0.00005089
     atom   44 type  1   force =     0.00005335    0.00019924   -0.00028351
     atom   45 type  1   force =     0.00001625    0.00001649    0.00005156
     atom   46 type  1   force =    -0.00017045    0.00018143   -0.00026540
     atom   47 type  1   force =    -0.00003103    0.00001119   -0.00010752
     atom   48 type  1   force =     0.00014149    0.00021028    0.00020290
     atom   49 type  1   force =    -0.00006783   -0.00003659    0.00004180
     atom   50 type  1   force =     0.00001844   -0.00002729    0.00003807
     atom   51 type  1   force =     0.00370764   -0.00300519    0.00236778
     atom   52 type  1   force =    -0.00012751   -0.00056589    0.00015231
     atom   53 type  1   force =     0.00026339   -0.00002776    0.00001867
     atom   54 type  1   force =    -0.00001281   -0.00003039    0.00004052
     atom   55 type  1   force =     0.00005531   -0.00057823   -0.00007636
     atom   56 type  1   force =     0.00013825   -0.00055134    0.00013675
     atom   57 type  1   force =    -0.00013378    0.00009433   -0.00002693
     atom   58 type  1   force =     0.00010423    0.00007227   -0.00003603
     atom   59 type  1   force =     0.00033077    0.00007134   -0.00001814
     atom   60 type  1   force =    -0.00009837    0.00007349   -0.00004029
     atom   61 type  1   force =     0.00404122    0.00271341   -0.00237719
     atom   62 type  1   force =    -0.00024010    0.00027001   -0.00014871
     atom   63 type  1   force =    -0.00029197    0.00027607    0.00006263
     atom   64 type  1   force =     0.00026024    0.00026515   -0.00014504

     Total force =     0.024053     Total SCF correction =     0.000045

     Writing output data file pwscf.save
 
     init_run     :     15.91s CPU     26.87s WALL (       1 calls)
     electrons    :    281.90s CPU    289.41s WALL (       1 calls)
     forces       :      4.10s CPU      4.19s WALL (       1 calls)

     Called by init_run:
     wfcinit      :     11.84s CPU     14.98s WALL (       1 calls)
     potinit      :      0.24s CPU      0.36s WALL (       1 calls)

     Called by electrons:
     c_bands      :    253.56s CPU    259.61s WALL (      14 calls)
     sum_band     :     24.06s CPU     24.23s WALL (      14 calls)
     v_of_rho     :      0.68s CPU      0.69s WALL (      14 calls)
     newd         :      0.98s CPU      1.02s WALL (      14 calls)
     PAW_pot      :      2.32s CPU      2.32s WALL (      14 calls)
     mix_rho      :      0.32s CPU      0.32s WALL (      14 calls)

     Called by c_bands:
     init_us_2    :      2.69s CPU      2.72s WALL (     120 calls)
     cegterg      :    248.61s CPU    252.29s WALL (      56 calls)

     Called by sum_band:
     sum_band:bec :      0.05s CPU      0.05s WALL (      56 calls)
     addusdens    :      1.01s CPU      1.11s WALL (      14 calls)

     Called by *egterg:
     h_psi        :    121.28s CPU    121.59s WALL (     250 calls)
     s_psi        :     30.27s CPU     30.33s WALL (     250 calls)
     g_psi        :      1.06s CPU      1.06s WALL (     190 calls)
     cdiaghg      :     36.96s CPU     37.00s WALL (     242 calls)

     Called by h_psi:
     add_vuspsi   :     30.33s CPU     30.39s WALL (     250 calls)

     General routines
     calbec       :     46.71s CPU     46.80s WALL (     322 calls)
     fft          :      0.43s CPU      0.46s WALL (     195 calls)
     fftw         :     61.71s CPU     61.94s WALL (   57064 calls)
     davcio       :      0.00s CPU      0.01s WALL (       4 calls)
 
     Parallel routines
     fft_scatter  :     20.25s CPU     20.13s WALL (   57259 calls)
 
     PWSCF        :  5m 2.20s CPU     5m50.44s WALL

 
   This run was terminated on:  13:52: 4   3Feb2016            

=------------------------------------------------------------------------------=
   JOB DONE.
=------------------------------------------------------------------------------=
