<?xml version="1.0" encoding="ISO-8859-1"?>
<modeling>
 <generator>
  <i name="program" type="string">vasp </i>
  <i name="version" type="string">5.4.1  </i>
  <i name="subversion" type="string">05Feb16 (build Mar 26 2016 11:58:25) complex                          parallel </i>
  <i name="platform" type="string">IFC91_ompi </i>
  <i name="date" type="string">2017 03 12 </i>
  <i name="time" type="string">12:13:56 </i>
 </generator>
 <incar>
  <i type="string" name="PREC">accurate</i>
  <i type="int" name="IALGO">    38</i>
  <i type="logical" name="ADDGRID"> T  </i>
  <i type="int" name="NELMIN">     5</i>
  <i type="int" name="IBRION">    -1</i>
  <i name="EDIFF">      0.00000001</i>
  <i name="ENCUT">    300.00000000</i>
  <i type="logical" name="LREAL"> F  </i>
  <i type="int" name="ISMEAR">     0</i>
  <i name="SIGMA">      0.05000000</i>
  <i type="logical" name="LWAVE"> F  </i>
  <i type="logical" name="LCHARG"> F  </i>
  <v type="int" name="KPOINT_BSE">    -1     0     0     0</v>
 </incar>
 <kpoints>
  <generation param="Monkhorst-Pack">
   <v type="int" name="divisions">       2        2        2 </v>
   <v name="usershift">      0.00000000       0.00000000       0.00000000 </v>
   <v name="genvec1">      0.50000000       0.00000000       0.00000000 </v>
   <v name="genvec2">      0.00000000       0.50000000       0.00000000 </v>
   <v name="genvec3">      0.00000000       0.00000000       0.50000000 </v>
   <v name="shift">      0.50000000       0.50000000       0.50000000 </v>
  </generation>
  <varray name="kpointlist" >
   <v>       0.25000000       0.25000000       0.25000000 </v>
   <v>      -0.25000000       0.25000000       0.25000000 </v>
   <v>       0.25000000      -0.25000000       0.25000000 </v>
  </varray>
  <varray name="weights" >
   <v>       0.25000000 </v>
   <v>       0.25000000 </v>
   <v>       0.50000000 </v>
  </varray>
 </kpoints>
 <parameters>
  <separator name="general" >
   <i type="string" name="SYSTEM">unknown system</i>
   <i type="logical" name="LCOMPAT"> F  </i>
  </separator>
  <separator name="electronic" >
   <i type="string" name="PREC">accura</i>
   <i name="ENMAX">    300.00000000</i>
   <i name="ENAUG">    322.06900000</i>
   <i name="EDIFF">      0.00000001</i>
   <i type="int" name="IALGO">    38</i>
   <i type="int" name="IWAVPR">    10</i>
   <i type="int" name="NBANDS">   164</i>
   <i name="NELECT">    256.00000000</i>
   <i type="int" name="TURBO">     0</i>
   <i type="int" name="IRESTART">     0</i>
   <i type="int" name="NREBOOT">     0</i>
   <i type="int" name="NMIN">     0</i>
   <i name="EREF">      0.00000000</i>
   <separator name="electronic smearing" >
    <i type="int" name="ISMEAR">     0</i>
    <i name="SIGMA">      0.05000000</i>
    <i name="KSPACING">      0.50000000</i>
    <i type="logical" name="KGAMMA"> T  </i>
   </separator>
   <separator name="electronic projectors" >
    <i type="logical" name="LREAL"> F  </i>
    <v name="ROPT">      0.00000000</v>
    <i type="int" name="LMAXPAW">  -100</i>
    <i type="int" name="LMAXMIX">     2</i>
    <i type="logical" name="NLSPLINE"> F  </i>
   </separator>
   <separator name="electronic startup" >
    <i type="int" name="ISTART">     0</i>
    <i type="int" name="ICHARG">     2</i>
    <i type="int" name="INIWAV">     1</i>
   </separator>
   <separator name="electronic spin" >
    <i type="int" name="ISPIN">     1</i>
    <i type="logical" name="LNONCOLLINEAR"> F  </i>
    <v name="MAGMOM">      1.00000000      1.00000000      1.00000000      1.00000000      1.00000000      1.00000000      1.00000000      1.00000000      1.00000000      1.00000000      1.00000000      1.00000000      1.00000000      1.00000000      1.00000000      1.00000000      1.00000000      1.00000000      1.00000000      1.00000000
      1.00000000      1.00000000      1.00000000      1.00000000      1.00000000      1.00000000      1.00000000      1.00000000      1.00000000      1.00000000      1.00000000      1.00000000      1.00000000      1.00000000      1.00000000      1.00000000      1.00000000      1.00000000      1.00000000      1.00000000
      1.00000000      1.00000000      1.00000000      1.00000000      1.00000000      1.00000000      1.00000000      1.00000000      1.00000000      1.00000000      1.00000000      1.00000000      1.00000000      1.00000000      1.00000000      1.00000000      1.00000000      1.00000000      1.00000000      1.00000000
      1.00000000      1.00000000      1.00000000      1.00000000</v>
    <i name="NUPDOWN">     -1.00000000</i>
    <i type="logical" name="LSORBIT"> F  </i>
    <v name="SAXIS">      0.00000000      0.00000000      1.00000000</v>
    <i type="logical" name="LSPIRAL"> F  </i>
    <v name="QSPIRAL">      0.00000000      0.00000000      0.00000000</v>
    <i type="logical" name="LZEROZ"> F  </i>
   </separator>
   <separator name="electronic exchange-correlation" >
    <i type="logical" name="LASPH"> F  </i>
    <i type="logical" name="LMETAGGA"> F  </i>
   </separator>
   <separator name="electronic convergence" >
    <i type="int" name="NELM">    60</i>
    <i type="int" name="NELMDL">    -5</i>
    <i type="int" name="NELMIN">     5</i>
    <i name="ENINI">    300.00000000</i>
    <separator name="electronic convergence detail" >
     <i type="logical" name="LDIAG"> T  </i>
     <i type="logical" name="LSUBROT"> F  </i>
     <i name="WEIMIN">      0.00000000</i>
     <i name="EBREAK">      0.00000000</i>
     <i name="DEPER">      0.30000000</i>
     <i type="int" name="NRMM">     4</i>
     <i name="TIME">      0.40000000</i>
    </separator>
   </separator>
   <separator name="electronic mixer" >
    <i name="AMIX">      0.40000000</i>
    <i name="BMIX">      1.00000000</i>
    <i name="AMIN">      0.10000000</i>
    <i name="AMIX_MAG">      1.60000000</i>
    <i name="BMIX_MAG">      1.00000000</i>
    <separator name="electronic mixer details" >
     <i type="int" name="IMIX">     4</i>
     <i type="logical" name="MIXFIRST"> F  </i>
     <i type="int" name="MAXMIX">   -45</i>
     <i name="WC">    100.00000000</i>
     <i type="int" name="INIMIX">     1</i>
     <i type="int" name="MIXPRE">     1</i>
     <i type="int" name="MREMOVE">     5</i>
    </separator>
   </separator>
   <separator name="electronic dipolcorrection" >
    <i type="logical" name="LDIPOL"> F  </i>
    <i type="logical" name="LMONO"> F  </i>
    <i type="int" name="IDIPOL">     0</i>
    <i name="EPSILON">      1.00000000</i>
    <v name="DIPOL">   -100.00000000   -100.00000000   -100.00000000</v>
    <i name="EFIELD">      0.00000000</i>
   </separator>
  </separator>
  <separator name="grids" >
   <i type="int" name="NGX">    64</i>
   <i type="int" name="NGY">    64</i>
   <i type="int" name="NGZ">    64</i>
   <i type="int" name="NGXF">   128</i>
   <i type="int" name="NGYF">   128</i>
   <i type="int" name="NGZF">   128</i>
   <i type="logical" name="ADDGRID"> T  </i>
  </separator>
  <separator name="ionic" >
   <i type="int" name="NSW">     0</i>
   <i type="int" name="IBRION">    -1</i>
   <i type="int" name="ISIF">     2</i>
   <i name="PSTRESS">      0.00000000</i>
   <i name="EDIFFG">      0.00000010</i>
   <i type="int" name="NFREE">     0</i>
   <i name="POTIM">      0.50000000</i>
   <i name="SMASS">     -3.00000000</i>
   <i name="SCALEE">      1.00000000</i>
  </separator>
  <separator name="ionic md" >
   <i name="TEBEG">      0.00010000</i>
   <i name="TEEND">      0.00010000</i>
   <i type="int" name="NBLOCK">     1</i>
   <i type="int" name="KBLOCK">     1</i>
   <i type="int" name="NPACO">   256</i>
   <i name="APACO">     16.00000000</i>
  </separator>
  <separator name="symmetry" >
   <i type="int" name="ISYM">     2</i>
   <i name="SYMPREC">      0.00001000</i>
  </separator>
  <separator name="dos" >
   <i type="logical" name="LORBIT"> F  </i>
   <v name="RWIGS">     -1.00000000</v>
   <i type="int" name="NEDOS">   301</i>
   <i name="EMIN">     10.00000000</i>
   <i name="EMAX">    -10.00000000</i>
   <i name="EFERMI">      0.00000000</i>
  </separator>
  <separator name="writing" >
   <i type="int" name="NWRITE">     2</i>
   <i type="logical" name="LWAVE"> F  </i>
   <i type="logical" name="LCHARG"> F  </i>
   <i type="logical" name="LPARD"> F  </i>
   <i type="logical" name="LVTOT"> F  </i>
   <i type="logical" name="LVHAR"> F  </i>
   <i type="logical" name="LELF"> F  </i>
   <i type="logical" name="LOPTICS"> F  </i>
   <v name="STM">      0.00000000      0.00000000      0.00000000      0.00000000      0.00000000      0.00000000      0.00000000</v>
  </separator>
  <separator name="performance" >
   <i type="int" name="NPAR">     4</i>
   <i type="int" name="NSIM">     4</i>
   <i type="int" name="NBLK">    -1</i>
   <i type="logical" name="LPLANE"> T  </i>
   <i type="logical" name="LSCALAPACK"> T  </i>
   <i type="logical" name="LSCAAWARE"> F  </i>
   <i type="logical" name="LSCALU"> F  </i>
   <i type="logical" name="LASYNC"> F  </i>
   <i type="logical" name="LORBITALREAL"> F  </i>
  </separator>
  <separator name="miscellaneous" >
   <i type="int" name="IDIOT">     3</i>
   <i type="logical" name="LMUSIC"> F  </i>
   <v name="POMASS">     28.08500000</v>
   <v name="DARWINR">      0.00000000</v>
   <v name="DARWINV">      1.00000000</v>
   <i type="logical" name="LCORR"> T  </i>
  </separator>
  <i type="logical" name="GGA_COMPAT"> T  </i>
  <i type="logical" name="LBERRY"> F  </i>
  <i type="int" name="ICORELEVEL">     0</i>
  <i type="logical" name="LDAU"> F  </i>
  <i type="int" name="I_CONSTRAINED_M">     0</i>
  <separator name="electronic exchange-correlation" >
   <i type="string" name="GGA">--</i>
   <i type="int" name="VOSKOWN">     0</i>
   <i type="logical" name="LHFCALC"> F  </i>
   <i type="string" name="PRECFOCK"></i>
   <i type="logical" name="LSYMGRAD"> F  </i>
   <i type="logical" name="LHFONE"> F  </i>
   <i type="logical" name="LRHFCALC"> F  </i>
   <i type="logical" name="LTHOMAS"> F  </i>
   <i type="logical" name="LMODELHF"> F  </i>
   <i name="ENCUT4O">     -1.00000000</i>
   <i type="int" name="EXXOEP">     0</i>
   <i type="int" name="FOURORBIT">     0</i>
   <i name="AEXX">      0.00000000</i>
   <i name="HFALPHA">      0.00000000</i>
   <i name="MCALPHA">      0.00000000</i>
   <i name="ALDAX">      1.00000000</i>
   <i name="AGGAX">      1.00000000</i>
   <i name="ALDAC">      1.00000000</i>
   <i name="AGGAC">      1.00000000</i>
   <i type="int" name="NKREDX">     1</i>
   <i type="int" name="NKREDY">     1</i>
   <i type="int" name="NKREDZ">     1</i>
   <i type="logical" name="SHIFTRED"> F  </i>
   <i type="logical" name="ODDONLY"> F  </i>
   <i type="logical" name="EVENONLY"> F  </i>
   <i type="int" name="LMAXFOCK">     0</i>
   <i type="int" name="NMAXFOCKAE">     0</i>
   <i type="logical" name="LFOCKAEDFT"> F  </i>
   <i name="HFSCREEN">      0.00000000</i>
   <i name="HFSCREENC">      0.00000000</i>
   <i type="int" name="NBANDSGWLOW">     0</i>
  </separator>
  <separator name="vdW DFT" >
   <i type="logical" name="LUSE_VDW"> F  </i>
   <i name="Zab_VDW">     -0.84910000</i>
   <i name="PARAM1">      0.12340000</i>
   <i name="PARAM2">      1.00000000</i>
   <i name="PARAM3">      0.00000000</i>
  </separator>
  <separator name="model GW" >
   <i type="int" name="MODEL_GW">     0</i>
   <i name="MODEL_EPS0">     12.24990743</i>
   <i name="MODEL_ALPHA">      1.00000000</i>
  </separator>
  <separator name="linear response parameters" >
   <i type="logical" name="LEPSILON"> F  </i>
   <i type="logical" name="LRPA"> F  </i>
   <i type="logical" name="LNABLA"> F  </i>
   <i type="logical" name="LVEL"> F  </i>
   <i type="int" name="KINTER">     0</i>
   <i name="CSHIFT">      0.10000000</i>
   <i name="OMEGAMAX">     -1.00000000</i>
   <i name="DEG_THRESHOLD">      0.00200000</i>
  </separator>
  <separator name="orbital magnetization" >
   <i type="logical" name="NUCIND"> F  </i>
   <v name="MAGPOS">      0.00000000      0.00000000      0.00000000</v>
   <i type="logical" name="LNICSALL"> T  </i>
   <i type="logical" name="ORBITALMAG"> F  </i>
   <i type="logical" name="LMAGBLOCH"> F  </i>
   <i type="logical" name="LCHIMAG"> F  </i>
   <i type="logical" name="LGAUGE"> T  </i>
   <i type="int" name="MAGATOM">     0</i>
   <v name="MAGDIPOL">      0.00000000      0.00000000      0.00000000</v>
   <v name="AVECCONST">      0.00000000      0.00000000      0.00000000</v>
  </separator>
  <separator name="response functions" >
   <i type="logical" name="LADDER"> F  </i>
   <i type="logical" name="LFXC"> F  </i>
   <i type="logical" name="LHARTREE"> T  </i>
   <i type="int" name="IBSE">     0</i>
   <v type="int" name="KPOINT">    -1     0     0     0</v>
   <i type="logical" name="LTCTE"> F  </i>
   <i type="logical" name="LTETE"> F  </i>
   <i type="logical" name="LTRIPLET"> F  </i>
   <i type="logical" name="LFXCEPS"> F  </i>
   <i type="logical" name="LFXHEG"> F  </i>
   <i type="int" name="NATURALO">     0</i>
   <i type="logical" name="L2ORDER"> F  </i>
   <i type="logical" name="LUSEW"> F  </i>
   <i name="ENCUTGW">     -2.00000000</i>
   <i name="ENCUTGWSOFT">     -2.00000000</i>
   <i name="ENCUTLF">     -1.00000000</i>
   <i type="int" name="LMAXMP2">    -1</i>
   <i name="SCISSOR">      0.00000000</i>
   <i type="int" name="NOMEGA">     0</i>
   <i type="int" name="NOMEGAR">     0</i>
   <i type="int" name="NBANDSGW">    -1</i>
   <i type="int" name="NBANDSO">    -1</i>
   <i type="int" name="NBANDSV">    -1</i>
   <i type="int" name="NELM">     1</i>
   <i type="int" name="NELMHF">     1</i>
   <i type="int" name="DIM">     3</i>
   <i type="int" name="ANTIRES">     0</i>
   <i name="OMEGAMAX">    -30.00000000</i>
   <i name="OMEGAMIN">    -30.00000000</i>
   <i name="OMEGATL">   -200.00000000</i>
   <i type="int" name="OMEGAGRID">     0</i>
   <i name="CSHIFT">     -0.10000000</i>
   <i type="logical" name="SELFENERGY"> F  </i>
   <i type="logical" name="LSPECTRAL"> F  </i>
   <i type="logical" name="LSPECTRALGW"> F  </i>
   <i type="logical" name="LSINGLES"> F  </i>
   <i type="logical" name="LFERMIGW"> F  </i>
   <i type="logical" name="ODDONLYGW"> F  </i>
   <i type="logical" name="EVENONLYGW"> F  </i>
   <i type="int" name="NKREDLFX">     1</i>
   <i type="int" name="NKREDLFY">     1</i>
   <i type="int" name="NKREDLFZ">     1</i>
   <i type="int" name="MAXMEM">  1800</i>
   <i type="int" name="TELESCOPE">     0</i>
   <i type="int" name="TAUPAR">     1</i>
   <i type="int" name="OMEGAPAR">    -1</i>
   <i name="LAMBDA">      1.00000000</i>
  </separator>
  <separator name="External order field" >
   <i name="OFIELD_KAPPA">      0.00000000</i>
   <v name="OFIELD_K">      0.00000000      0.00000000      0.00000000</v>
   <i name="OFIELD_Q6_NEAR">      0.00000000</i>
   <i name="OFIELD_Q6_FAR">      0.00000000</i>
   <i name="OFIELD_A">      0.00000000</i>
  </separator>
 </parameters>
 <atominfo>
  <atoms>      64 </atoms>
  <types>       1 </types>
  <array name="atoms" >
   <dimension dim="1">ion</dimension>
   <field type="string">element</field>
   <field type="int">atomtype</field>
   <set>
    <rc><c>Si</c><c>   1</c></rc>
    <rc><c>Si</c><c>   1</c></rc>
    <rc><c>Si</c><c>   1</c></rc>
    <rc><c>Si</c><c>   1</c></rc>
    <rc><c>Si</c><c>   1</c></rc>
    <rc><c>Si</c><c>   1</c></rc>
    <rc><c>Si</c><c>   1</c></rc>
    <rc><c>Si</c><c>   1</c></rc>
    <rc><c>Si</c><c>   1</c></rc>
    <rc><c>Si</c><c>   1</c></rc>
    <rc><c>Si</c><c>   1</c></rc>
    <rc><c>Si</c><c>   1</c></rc>
    <rc><c>Si</c><c>   1</c></rc>
    <rc><c>Si</c><c>   1</c></rc>
    <rc><c>Si</c><c>   1</c></rc>
    <rc><c>Si</c><c>   1</c></rc>
    <rc><c>Si</c><c>   1</c></rc>
    <rc><c>Si</c><c>   1</c></rc>
    <rc><c>Si</c><c>   1</c></rc>
    <rc><c>Si</c><c>   1</c></rc>
    <rc><c>Si</c><c>   1</c></rc>
    <rc><c>Si</c><c>   1</c></rc>
    <rc><c>Si</c><c>   1</c></rc>
    <rc><c>Si</c><c>   1</c></rc>
    <rc><c>Si</c><c>   1</c></rc>
    <rc><c>Si</c><c>   1</c></rc>
    <rc><c>Si</c><c>   1</c></rc>
    <rc><c>Si</c><c>   1</c></rc>
    <rc><c>Si</c><c>   1</c></rc>
    <rc><c>Si</c><c>   1</c></rc>
    <rc><c>Si</c><c>   1</c></rc>
    <rc><c>Si</c><c>   1</c></rc>
    <rc><c>Si</c><c>   1</c></rc>
    <rc><c>Si</c><c>   1</c></rc>
    <rc><c>Si</c><c>   1</c></rc>
    <rc><c>Si</c><c>   1</c></rc>
    <rc><c>Si</c><c>   1</c></rc>
    <rc><c>Si</c><c>   1</c></rc>
    <rc><c>Si</c><c>   1</c></rc>
    <rc><c>Si</c><c>   1</c></rc>
    <rc><c>Si</c><c>   1</c></rc>
    <rc><c>Si</c><c>   1</c></rc>
    <rc><c>Si</c><c>   1</c></rc>
    <rc><c>Si</c><c>   1</c></rc>
    <rc><c>Si</c><c>   1</c></rc>
    <rc><c>Si</c><c>   1</c></rc>
    <rc><c>Si</c><c>   1</c></rc>
    <rc><c>Si</c><c>   1</c></rc>
    <rc><c>Si</c><c>   1</c></rc>
    <rc><c>Si</c><c>   1</c></rc>
    <rc><c>Si</c><c>   1</c></rc>
    <rc><c>Si</c><c>   1</c></rc>
    <rc><c>Si</c><c>   1</c></rc>
    <rc><c>Si</c><c>   1</c></rc>
    <rc><c>Si</c><c>   1</c></rc>
    <rc><c>Si</c><c>   1</c></rc>
    <rc><c>Si</c><c>   1</c></rc>
    <rc><c>Si</c><c>   1</c></rc>
    <rc><c>Si</c><c>   1</c></rc>
    <rc><c>Si</c><c>   1</c></rc>
    <rc><c>Si</c><c>   1</c></rc>
    <rc><c>Si</c><c>   1</c></rc>
    <rc><c>Si</c><c>   1</c></rc>
    <rc><c>Si</c><c>   1</c></rc>
   </set>
  </array>
  <array name="atomtypes" >
   <dimension dim="1">type</dimension>
   <field type="int">atomspertype</field>
   <field type="string">element</field>
   <field>mass</field>
   <field>valence</field>
   <field type="string">pseudopotential</field>
   <set>
    <rc><c>  64</c><c>Si</c><c>     28.08500000</c><c>      4.00000000</c><c>  PAW_PBE Si 05Jan2001                  </c></rc>
   </set>
  </array>
 </atominfo>
 <structure name="initialpos" >
  <crystal>
   <varray name="basis" >
    <v>      10.93252578       0.00000000       0.00000000 </v>
    <v>       0.00000000      10.93252578       0.00000000 </v>
    <v>       0.00000000       0.00000000      10.93252578 </v>
   </varray>
   <i name="volume">   1306.65679237 </i>
   <varray name="rec_basis" >
    <v>       0.09147017       0.00000000       0.00000000 </v>
    <v>       0.00000000       0.09147017       0.00000000 </v>
    <v>       0.00000000       0.00000000       0.09147017 </v>
   </varray>
  </crystal>
  <varray name="positions" >
   <v>       0.44024411       0.43750000       0.43750000 </v>
   <v>       0.93750000       0.43750000       0.43750000 </v>
   <v>       0.43750000       0.93750000       0.43750000 </v>
   <v>       0.93750000       0.93750000       0.43750000 </v>
   <v>       0.43750000       0.43750000       0.93750000 </v>
   <v>       0.93750000       0.43750000       0.93750000 </v>
   <v>       0.43750000       0.93750000       0.93750000 </v>
   <v>       0.93750000       0.93750000       0.93750000 </v>
   <v>       0.43750000       0.18750000       0.18750000 </v>
   <v>       0.93475589       0.18750000       0.18750000 </v>
   <v>       0.43750000       0.68750000       0.18750000 </v>
   <v>       0.93750000       0.68750000       0.18750000 </v>
   <v>       0.43750000       0.18750000       0.68750000 </v>
   <v>       0.93750000       0.18750000       0.68750000 </v>
   <v>       0.43750000       0.68750000       0.68750000 </v>
   <v>       0.93750000       0.68750000       0.68750000 </v>
   <v>       0.18750000       0.43750000       0.18750000 </v>
   <v>       0.68750000       0.43750000       0.18750000 </v>
   <v>       0.18750000       0.93750000       0.18750000 </v>
   <v>       0.68750000       0.93750000       0.18750000 </v>
   <v>       0.18750000       0.43750000       0.68750000 </v>
   <v>       0.68750000       0.43750000       0.68750000 </v>
   <v>       0.18750000       0.93750000       0.68750000 </v>
   <v>       0.68750000       0.93750000       0.68750000 </v>
   <v>       0.18750000       0.18750000       0.43750000 </v>
   <v>       0.68750000       0.18750000       0.43750000 </v>
   <v>       0.18750000       0.68750000       0.43750000 </v>
   <v>       0.68750000       0.68750000       0.43750000 </v>
   <v>       0.18750000       0.18750000       0.93750000 </v>
   <v>       0.68750000       0.18750000       0.93750000 </v>
   <v>       0.18750000       0.68750000       0.93750000 </v>
   <v>       0.68750000       0.68750000       0.93750000 </v>
   <v>       0.06250000       0.06250000       0.06250000 </v>
   <v>       0.56250000       0.06250000       0.06250000 </v>
   <v>       0.06250000       0.56250000       0.06250000 </v>
   <v>       0.56250000       0.56250000       0.06250000 </v>
   <v>       0.06250000       0.06250000       0.56250000 </v>
   <v>       0.56250000       0.06250000       0.56250000 </v>
   <v>       0.06250000       0.56250000       0.56250000 </v>
   <v>       0.56250000       0.56250000       0.56250000 </v>
   <v>       0.06250000       0.31250000       0.31250000 </v>
   <v>       0.56250000       0.31250000       0.31250000 </v>
   <v>       0.06250000       0.81250000       0.31250000 </v>
   <v>       0.56250000       0.81250000       0.31250000 </v>
   <v>       0.06250000       0.31250000       0.81250000 </v>
   <v>       0.56250000       0.31250000       0.81250000 </v>
   <v>       0.06250000       0.81250000       0.81250000 </v>
   <v>       0.56250000       0.81250000       0.81250000 </v>
   <v>       0.31250000       0.06250000       0.31250000 </v>
   <v>       0.81250000       0.06250000       0.31250000 </v>
   <v>       0.31250000       0.56250000       0.31250000 </v>
   <v>       0.81250000       0.56250000       0.31250000 </v>
   <v>       0.31250000       0.06250000       0.81250000 </v>
   <v>       0.81250000       0.06250000       0.81250000 </v>
   <v>       0.31250000       0.56250000       0.81250000 </v>
   <v>       0.81250000       0.56250000       0.81250000 </v>
   <v>       0.31250000       0.31250000       0.06250000 </v>
   <v>       0.81250000       0.31250000       0.06250000 </v>
   <v>       0.31250000       0.81250000       0.06250000 </v>
   <v>       0.81250000       0.81250000       0.06250000 </v>
   <v>       0.31250000       0.31250000       0.56250000 </v>
   <v>       0.81250000       0.31250000       0.56250000 </v>
   <v>       0.31250000       0.81250000       0.56250000 </v>
   <v>       0.81250000       0.81250000       0.56250000 </v>
  </varray>
 </structure>
 <calculation>
  <scstep>
   <time name="dav">    4.16    4.16</time>
   <time name="total">    4.42    4.43</time>
   <energy>
    <i name="alphaZ">    105.52440745 </i>
    <i name="ewald">  -7265.46941125 </i>
    <i name="hartreedc">   -361.71423362 </i>
    <i name="XCdc">   -597.75714146 </i>
    <i name="pawpsdc">   5639.92317535 </i>
    <i name="pawaedc">  -4513.95313856 </i>
    <i name="eentropy">     -0.00016046 </i>
    <i name="bandstr">    856.50586166 </i>
    <i name="atom">   6596.14994790 </i>
    <i name="e_fr_energy">    459.20930701 </i>
    <i name="e_wo_entrp">    459.20946747 </i>
    <i name="e_0_energy">    459.20938724 </i>
   </energy>
  </scstep>
  <scstep>
   <time name="dav">    4.74    4.75</time>
   <time name="total">    4.75    4.75</time>
   <energy>
    <i name="e_fr_energy">   -299.96175700 </i>
    <i name="e_wo_entrp">   -299.96175700 </i>
    <i name="e_0_energy">   -299.96175700 </i>
   </energy>
  </scstep>
  <scstep>
   <time name="dav">    4.82    4.82</time>
   <time name="total">    4.82    4.83</time>
   <energy>
    <i name="e_fr_energy">   -351.01829324 </i>
    <i name="e_wo_entrp">   -351.01829324 </i>
    <i name="e_0_energy">   -351.01829324 </i>
   </energy>
  </scstep>
  <scstep>
   <time name="dav">    4.82    4.82</time>
   <time name="total">    4.82    4.83</time>
   <energy>
    <i name="e_fr_energy">   -352.27420498 </i>
    <i name="e_wo_entrp">   -352.27420498 </i>
    <i name="e_0_energy">   -352.27420498 </i>
   </energy>
  </scstep>
  <scstep>
   <time name="dav">    4.77    4.77</time>
   <time name="total">    5.06    5.07</time>
   <energy>
    <i name="e_fr_energy">   -352.31307056 </i>
    <i name="e_wo_entrp">   -352.31307056 </i>
    <i name="e_0_energy">   -352.31307056 </i>
   </energy>
  </scstep>
  <scstep>
   <time name="dav">    4.60    4.60</time>
   <time name="total">    5.17    5.17</time>
   <energy>
    <i name="e_fr_energy">   -348.58474469 </i>
    <i name="e_wo_entrp">   -348.58474469 </i>
    <i name="e_0_energy">   -348.58474469 </i>
   </energy>
  </scstep>
  <scstep>
   <time name="dav">    4.60    4.61</time>
   <time name="total">    5.16    5.20</time>
   <energy>
    <i name="e_fr_energy">   -346.87187749 </i>
    <i name="e_wo_entrp">   -346.87187749 </i>
    <i name="e_0_energy">   -346.87187749 </i>
   </energy>
  </scstep>
  <scstep>
   <time name="dav">    4.66    4.68</time>
   <time name="total">    5.23    5.25</time>
   <energy>
    <i name="e_fr_energy">   -346.89813754 </i>
    <i name="e_wo_entrp">   -346.89813754 </i>
    <i name="e_0_energy">   -346.89813754 </i>
   </energy>
  </scstep>
  <scstep>
   <time name="dav">    4.84    4.85</time>
   <time name="total">    5.40    5.42</time>
   <energy>
    <i name="e_fr_energy">   -346.90487318 </i>
    <i name="e_wo_entrp">   -346.90487318 </i>
    <i name="e_0_energy">   -346.90487318 </i>
   </energy>
  </scstep>
  <scstep>
   <time name="dav">    4.49    4.50</time>
   <time name="total">    5.06    5.09</time>
   <energy>
    <i name="e_fr_energy">   -346.90692205 </i>
    <i name="e_wo_entrp">   -346.90692205 </i>
    <i name="e_0_energy">   -346.90692205 </i>
   </energy>
  </scstep>
  <scstep>
   <time name="dav">    4.79    4.80</time>
   <time name="total">    5.36    5.38</time>
   <energy>
    <i name="e_fr_energy">   -346.90689811 </i>
    <i name="e_wo_entrp">   -346.90689811 </i>
    <i name="e_0_energy">   -346.90689811 </i>
   </energy>
  </scstep>
  <scstep>
   <time name="dav">    4.69    4.70</time>
   <time name="total">    5.26    5.28</time>
   <energy>
    <i name="e_fr_energy">   -346.90691303 </i>
    <i name="e_wo_entrp">   -346.90691303 </i>
    <i name="e_0_energy">   -346.90691303 </i>
   </energy>
  </scstep>
  <scstep>
   <time name="dav">    4.65    4.66</time>
   <time name="total">    5.22    5.24</time>
   <energy>
    <i name="e_fr_energy">   -346.90691348 </i>
    <i name="e_wo_entrp">   -346.90691348 </i>
    <i name="e_0_energy">   -346.90691348 </i>
   </energy>
  </scstep>
  <scstep>
   <time name="dav">    4.78    4.79</time>
   <time name="total">    5.35    5.37</time>
   <energy>
    <i name="e_fr_energy">   -346.90691406 </i>
    <i name="e_wo_entrp">   -346.90691406 </i>
    <i name="e_0_energy">   -346.90691406 </i>
   </energy>
  </scstep>
  <scstep>
   <time name="dav">    4.02    4.03</time>
   <time name="total">    4.59    4.61</time>
   <energy>
    <i name="e_fr_energy">   -346.90691381 </i>
    <i name="e_wo_entrp">   -346.90691381 </i>
    <i name="e_0_energy">   -346.90691381 </i>
   </energy>
  </scstep>
  <scstep>
   <time name="dav">    3.25    3.26</time>
   <time name="total">    3.82    3.84</time>
   <energy>
    <i name="e_fr_energy">   -346.90691389 </i>
    <i name="e_wo_entrp">   -346.90691389 </i>
    <i name="e_0_energy">   -346.90691389 </i>
   </energy>
  </scstep>
  <scstep>
   <time name="dav">    3.21    3.22</time>
   <time name="total">    3.78    3.79</time>
   <energy>
    <i name="e_fr_energy">   -346.90691388 </i>
    <i name="e_wo_entrp">   -346.90691388 </i>
    <i name="e_0_energy">   -346.90691388 </i>
   </energy>
  </scstep>
  <scstep>
   <time name="dav">    3.20    3.21</time>
   <time name="total">    3.77    3.79</time>
   <energy>
    <i name="e_fr_energy">   -346.90691389 </i>
    <i name="e_wo_entrp">   -346.90691389 </i>
    <i name="e_0_energy">   -346.90691389 </i>
   </energy>
  </scstep>
  <scstep>
   <time name="dav">    3.20    3.21</time>
   <time name="total">    3.47    3.54</time>
   <energy>
    <i name="alphaZ">    105.52440745 </i>
    <i name="ewald">  -7265.46941125 </i>
    <i name="hartreedc">   -485.14502779 </i>
    <i name="XCdc">   -577.61229075 </i>
    <i name="pawpsdc">  27883.44001029 </i>
    <i name="pawaedc"> -26764.15793889 </i>
    <i name="eentropy">      0.00000000 </i>
    <i name="bandstr">    160.36338914 </i>
    <i name="atom">   6596.14994790 </i>
    <i name="e_fr_energy">   -346.90691390 </i>
    <i name="e_wo_entrp">   -346.90691390 </i>
    <i name="e_0_energy">   -346.90691390 </i>
   </energy>
  </scstep>
  <structure>
   <crystal>
    <varray name="basis" >
     <v>      10.93252578       0.00000000       0.00000000 </v>
     <v>       0.00000000      10.93252578       0.00000000 </v>
     <v>       0.00000000       0.00000000      10.93252578 </v>
    </varray>
    <i name="volume">   1306.65679237 </i>
    <varray name="rec_basis" >
     <v>       0.09147017       0.00000000       0.00000000 </v>
     <v>       0.00000000       0.09147017       0.00000000 </v>
     <v>       0.00000000       0.00000000       0.09147017 </v>
    </varray>
   </crystal>
   <varray name="positions" >
    <v>       0.44024411       0.43750000       0.43750000 </v>
    <v>       0.93750000       0.43750000       0.43750000 </v>
    <v>       0.43750000       0.93750000       0.43750000 </v>
    <v>       0.93750000       0.93750000       0.43750000 </v>
    <v>       0.43750000       0.43750000       0.93750000 </v>
    <v>       0.93750000       0.43750000       0.93750000 </v>
    <v>       0.43750000       0.93750000       0.93750000 </v>
    <v>       0.93750000       0.93750000       0.93750000 </v>
    <v>       0.43750000       0.18750000       0.18750000 </v>
    <v>       0.93475589       0.18750000       0.18750000 </v>
    <v>       0.43750000       0.68750000       0.18750000 </v>
    <v>       0.93750000       0.68750000       0.18750000 </v>
    <v>       0.43750000       0.18750000       0.68750000 </v>
    <v>       0.93750000       0.18750000       0.68750000 </v>
    <v>       0.43750000       0.68750000       0.68750000 </v>
    <v>       0.93750000       0.68750000       0.68750000 </v>
    <v>       0.18750000       0.43750000       0.18750000 </v>
    <v>       0.68750000       0.43750000       0.18750000 </v>
    <v>       0.18750000       0.93750000       0.18750000 </v>
    <v>       0.68750000       0.93750000       0.18750000 </v>
    <v>       0.18750000       0.43750000       0.68750000 </v>
    <v>       0.68750000       0.43750000       0.68750000 </v>
    <v>       0.18750000       0.93750000       0.68750000 </v>
    <v>       0.68750000       0.93750000       0.68750000 </v>
    <v>       0.18750000       0.18750000       0.43750000 </v>
    <v>       0.68750000       0.18750000       0.43750000 </v>
    <v>       0.18750000       0.68750000       0.43750000 </v>
    <v>       0.68750000       0.68750000       0.43750000 </v>
    <v>       0.18750000       0.18750000       0.93750000 </v>
    <v>       0.68750000       0.18750000       0.93750000 </v>
    <v>       0.18750000       0.68750000       0.93750000 </v>
    <v>       0.68750000       0.68750000       0.93750000 </v>
    <v>       0.06250000       0.06250000       0.06250000 </v>
    <v>       0.56250000       0.06250000       0.06250000 </v>
    <v>       0.06250000       0.56250000       0.06250000 </v>
    <v>       0.56250000       0.56250000       0.06250000 </v>
    <v>       0.06250000       0.06250000       0.56250000 </v>
    <v>       0.56250000       0.06250000       0.56250000 </v>
    <v>       0.06250000       0.56250000       0.56250000 </v>
    <v>       0.56250000       0.56250000       0.56250000 </v>
    <v>       0.06250000       0.31250000       0.31250000 </v>
    <v>       0.56250000       0.31250000       0.31250000 </v>
    <v>       0.06250000       0.81250000       0.31250000 </v>
    <v>       0.56250000       0.81250000       0.31250000 </v>
    <v>       0.06250000       0.31250000       0.81250000 </v>
    <v>       0.56250000       0.31250000       0.81250000 </v>
    <v>       0.06250000       0.81250000       0.81250000 </v>
    <v>       0.56250000       0.81250000       0.81250000 </v>
    <v>       0.31250000       0.06250000       0.31250000 </v>
    <v>       0.81250000       0.06250000       0.31250000 </v>
    <v>       0.31250000       0.56250000       0.31250000 </v>
    <v>       0.81250000       0.56250000       0.31250000 </v>
    <v>       0.31250000       0.06250000       0.81250000 </v>
    <v>       0.81250000       0.06250000       0.81250000 </v>
    <v>       0.31250000       0.56250000       0.81250000 </v>
    <v>       0.81250000       0.56250000       0.81250000 </v>
    <v>       0.31250000       0.31250000       0.06250000 </v>
    <v>       0.81250000       0.31250000       0.06250000 </v>
    <v>       0.31250000       0.81250000       0.06250000 </v>
    <v>       0.81250000       0.81250000       0.06250000 </v>
    <v>       0.31250000       0.31250000       0.56250000 </v>
    <v>       0.81250000       0.31250000       0.56250000 </v>
    <v>       0.31250000       0.81250000       0.56250000 </v>
    <v>       0.81250000       0.81250000       0.56250000 </v>
   </varray>
  </structure>
  <varray name="forces" >
   <v>      -0.38711324       0.00023038       0.00023038 </v>
   <v>       0.01332341       0.00266552       0.00266552 </v>
   <v>       0.00134265       0.00022647      -0.00022607 </v>
   <v>       0.01270172       0.00277596      -0.00277391 </v>
   <v>       0.00134265      -0.00022607       0.00022647 </v>
   <v>       0.01270172      -0.00277391       0.00277596 </v>
   <v>      -0.01154986      -0.00023180      -0.00023180 </v>
   <v>       0.01334869      -0.00266441      -0.00266441 </v>
   <v>      -0.01343305       0.00277164       0.00277164 </v>
   <v>       0.38713734       0.00022981       0.00022981 </v>
   <v>      -0.01260302       0.00266126      -0.00266354 </v>
   <v>      -0.00131849       0.00023350      -0.00023395 </v>
   <v>      -0.01260302      -0.00266354       0.00266126 </v>
   <v>      -0.00131849      -0.00023395       0.00023350 </v>
   <v>      -0.01346242      -0.00277257      -0.00277257 </v>
   <v>       0.01152525      -0.00022803      -0.00022803 </v>
   <v>       0.00000748      -0.00822429       0.00288565 </v>
   <v>       0.00000764       0.00292360      -0.00846681 </v>
   <v>      -0.00463152       0.00533069       0.00081042 </v>
   <v>      -0.00477884      -0.00591922       0.00461567 </v>
   <v>       0.00463283       0.00453406      -0.00579118 </v>
   <v>       0.00478026       0.00092209       0.00545987 </v>
   <v>       0.00000037      -0.00163154       0.00209153 </v>
   <v>       0.00000051       0.00207719      -0.00161742 </v>
   <v>       0.00000748       0.00288565      -0.00822429 </v>
   <v>       0.00000764      -0.00846681       0.00292360 </v>
   <v>       0.00463283      -0.00579118       0.00453406 </v>
   <v>       0.00478026       0.00545987       0.00092209 </v>
   <v>      -0.00463152       0.00081042       0.00533069 </v>
   <v>      -0.00477884       0.00461567      -0.00591922 </v>
   <v>       0.00000037       0.00209153      -0.00163154 </v>
   <v>       0.00000051      -0.00161742       0.00207719 </v>
   <v>      -0.09361089       0.06171175       0.06171175 </v>
   <v>       0.00648994       0.00158904       0.00158904 </v>
   <v>       0.00204962       0.00154180       0.00184991 </v>
   <v>      -0.00213883       0.00184817       0.00163283 </v>
   <v>       0.00204962       0.00184991       0.00154180 </v>
   <v>      -0.00213883       0.00163283       0.00184817 </v>
   <v>      -0.00641200       0.00158640       0.00158640 </v>
   <v>       0.09633711       0.06685829       0.06685829 </v>
   <v>      -0.09335956      -0.06186869      -0.06186869 </v>
   <v>       0.09607087      -0.06701481      -0.06701481 </v>
   <v>       0.00205144      -0.00149054      -0.00190155 </v>
   <v>      -0.00213708      -0.00156340      -0.00191712 </v>
   <v>       0.00205144      -0.00190155      -0.00149054 </v>
   <v>      -0.00213708      -0.00191712      -0.00156340 </v>
   <v>      -0.00666958      -0.00143052      -0.00143052 </v>
   <v>       0.00674980      -0.00143157      -0.00143157 </v>
   <v>      -0.00115656      -0.00179698       0.00215538 </v>
   <v>      -0.09515036      -0.06675342       0.06682813 </v>
   <v>       0.09244644      -0.06155678       0.06160253 </v>
   <v>       0.00119869      -0.00183090       0.00211674 </v>
   <v>       0.00551677      -0.00132919       0.00127814 </v>
   <v>       0.00094087      -0.00195784       0.00167085 </v>
   <v>      -0.00089668      -0.00200092       0.00164371 </v>
   <v>      -0.00555181      -0.00139306       0.00132305 </v>
   <v>      -0.00115656       0.00215538      -0.00179698 </v>
   <v>      -0.09515036       0.06682813      -0.06675342 </v>
   <v>       0.00551677       0.00127814      -0.00132919 </v>
   <v>       0.00094087       0.00167085      -0.00195784 </v>
   <v>       0.09244644       0.06160253      -0.06155678 </v>
   <v>       0.00119869       0.00211674      -0.00183090 </v>
   <v>      -0.00089668       0.00164371      -0.00200092 </v>
   <v>      -0.00555181       0.00132305      -0.00139306 </v>
  </varray>
  <varray name="stress" >
   <v>      -0.01762459       0.00000131       0.00000131 </v>
   <v>       0.00000137       0.02081709      -0.00002415 </v>
   <v>       0.00000137      -0.00002415       0.02081709 </v>
  </varray>
  <energy>
   <i name="e_fr_energy">   -346.90691390 </i>
   <i name="e_wo_entrp">   -346.90691390 </i>
   <i name="e_0_energy">      0.00000000 </i>
  </energy>
  <time name="totalsc">  100.40  100.83</time>
  <eigenvalues>
   <array>
    <dimension dim="1">band</dimension>
    <dimension dim="2">kpoint</dimension>
    <dimension dim="3">spin</dimension>
    <field>eigene</field>
    <field>occ</field>
    <set>
     <set comment="spin 1">
      <set comment="kpoint 1">
       <r>   -5.9932    1.0000 </r>
       <r>   -5.4678    1.0000 </r>
       <r>   -5.4646    1.0000 </r>
       <r>   -5.4619    1.0000 </r>
       <r>   -4.9683    1.0000 </r>
       <r>   -4.9654    1.0000 </r>
       <r>   -4.9627    1.0000 </r>
       <r>   -4.5323    1.0000 </r>
       <r>   -4.4356    1.0000 </r>
       <r>   -4.4324    1.0000 </r>
       <r>   -4.4294    1.0000 </r>
       <r>   -4.0251    1.0000 </r>
       <r>   -4.0183    1.0000 </r>
       <r>   -4.0175    1.0000 </r>
       <r>   -4.0168    1.0000 </r>
       <r>   -4.0141    1.0000 </r>
       <r>   -4.0070    1.0000 </r>
       <r>   -3.8265    1.0000 </r>
       <r>   -3.8243    1.0000 </r>
       <r>   -3.8220    1.0000 </r>
       <r>   -3.3320    1.0000 </r>
       <r>   -3.3283    1.0000 </r>
       <r>   -3.3248    1.0000 </r>
       <r>   -2.9639    1.0000 </r>
       <r>   -2.9592    1.0000 </r>
       <r>   -2.9545    1.0000 </r>
       <r>   -2.7978    1.0000 </r>
       <r>   -2.7932    1.0000 </r>
       <r>   -2.7913    1.0000 </r>
       <r>   -2.7910    1.0000 </r>
       <r>   -2.7881    1.0000 </r>
       <r>   -2.7834    1.0000 </r>
       <r>   -1.2543    1.0000 </r>
       <r>   -1.2519    1.0000 </r>
       <r>   -1.2491    1.0000 </r>
       <r>   -1.2490    1.0000 </r>
       <r>   -1.2454    1.0000 </r>
       <r>   -1.2439    1.0000 </r>
       <r>   -1.1566    1.0000 </r>
       <r>   -1.1509    1.0000 </r>
       <r>   -1.1454    1.0000 </r>
       <r>   -1.0354    1.0000 </r>
       <r>   -1.0329    1.0000 </r>
       <r>   -1.0299    1.0000 </r>
       <r>   -0.9514    1.0000 </r>
       <r>   -0.9469    1.0000 </r>
       <r>   -0.9418    1.0000 </r>
       <r>   -0.2446    1.0000 </r>
       <r>   -0.1677    1.0000 </r>
       <r>   -0.1639    1.0000 </r>
       <r>   -0.1607    1.0000 </r>
       <r>   -0.1603    1.0000 </r>
       <r>   -0.1560    1.0000 </r>
       <r>   -0.1522    1.0000 </r>
       <r>    0.7123    1.0000 </r>
       <r>    0.7142    1.0000 </r>
       <r>    0.7165    1.0000 </r>
       <r>    1.0454    1.0000 </r>
       <r>    1.0470    1.0000 </r>
       <r>    1.0488    1.0000 </r>
       <r>    1.6524    1.0000 </r>
       <r>    1.6551    1.0000 </r>
       <r>    1.6568    1.0000 </r>
       <r>    1.6582    1.0000 </r>
       <r>    1.6592    1.0000 </r>
       <r>    1.6600    1.0000 </r>
       <r>    1.7140    1.0000 </r>
       <r>    1.7159    1.0000 </r>
       <r>    1.7185    1.0000 </r>
       <r>    2.2648    1.0000 </r>
       <r>    2.2678    1.0000 </r>
       <r>    2.2705    1.0000 </r>
       <r>    2.3655    1.0000 </r>
       <r>    2.3666    1.0000 </r>
       <r>    2.3701    1.0000 </r>
       <r>    2.3706    1.0000 </r>
       <r>    2.3756    1.0000 </r>
       <r>    2.3770    1.0000 </r>
       <r>    2.4230    1.0000 </r>
       <r>    2.4247    1.0000 </r>
       <r>    2.4270    1.0000 </r>
       <r>    2.7315    1.0000 </r>
       <r>    2.7329    1.0000 </r>
       <r>    2.7342    1.0000 </r>
       <r>    2.7348    1.0000 </r>
       <r>    2.7359    1.0000 </r>
       <r>    2.7405    1.0000 </r>
       <r>    2.9974    1.0000 </r>
       <r>    2.9995    1.0000 </r>
       <r>    3.0007    1.0000 </r>
       <r>    3.0117    1.0000 </r>
       <r>    3.0140    1.0000 </r>
       <r>    3.0149    1.0000 </r>
       <r>    3.3602    1.0000 </r>
       <r>    3.3621    1.0000 </r>
       <r>    3.3629    1.0000 </r>
       <r>    3.3817    1.0000 </r>
       <r>    3.3843    1.0000 </r>
       <r>    3.3878    1.0000 </r>
       <r>    3.4648    1.0000 </r>
       <r>    3.4667    1.0000 </r>
       <r>    3.4683    1.0000 </r>
       <r>    3.7373    1.0000 </r>
       <r>    3.7383    1.0000 </r>
       <r>    3.7401    1.0000 </r>
       <r>    3.7409    1.0000 </r>
       <r>    3.7428    1.0000 </r>
       <r>    3.7482    1.0000 </r>
       <r>    3.7785    1.0000 </r>
       <r>    3.7813    1.0000 </r>
       <r>    3.7825    1.0000 </r>
       <r>    4.0402    1.0000 </r>
       <r>    4.0951    1.0000 </r>
       <r>    4.0986    1.0000 </r>
       <r>    4.1005    1.0000 </r>
       <r>    4.3388    1.0000 </r>
       <r>    4.3412    1.0000 </r>
       <r>    4.3433    1.0000 </r>
       <r>    4.4024    1.0000 </r>
       <r>    4.4056    1.0000 </r>
       <r>    4.4094    1.0000 </r>
       <r>    4.5629    1.0000 </r>
       <r>    4.5630    1.0000 </r>
       <r>    4.8670    1.0000 </r>
       <r>    4.8702    1.0000 </r>
       <r>    4.8730    1.0000 </r>
       <r>    5.3497    1.0000 </r>
       <r>    5.3498    1.0000 </r>
       <r>    6.5626    0.0000 </r>
       <r>    6.5635    0.0000 </r>
       <r>    6.5640    0.0000 </r>
       <r>    7.0018    0.0000 </r>
       <r>    7.0044    0.0000 </r>
       <r>    7.0070    0.0000 </r>
       <r>    7.2337    0.0000 </r>
       <r>    7.4887    0.0000 </r>
       <r>    7.4908    0.0000 </r>
       <r>    7.4927    0.0000 </r>
       <r>    7.6164    0.0000 </r>
       <r>    7.6197    0.0000 </r>
       <r>    7.6225    0.0000 </r>
       <r>    7.7772    0.0000 </r>
       <r>    7.7798    0.0000 </r>
       <r>    7.7819    0.0000 </r>
       <r>    7.7986    0.0000 </r>
       <r>    7.8011    0.0000 </r>
       <r>    7.8043    0.0000 </r>
       <r>    8.0261    0.0000 </r>
       <r>    8.0279    0.0000 </r>
       <r>    8.0292    0.0000 </r>
       <r>    8.0304    0.0000 </r>
       <r>    8.0337    0.0000 </r>
       <r>    8.0360    0.0000 </r>
       <r>    8.0813    0.0000 </r>
       <r>    8.2930    0.0000 </r>
       <r>    8.2950    0.0000 </r>
       <r>    8.2969    0.0000 </r>
       <r>    8.4949    0.0000 </r>
       <r>    8.5000    0.0000 </r>
       <r>    8.5017    0.0000 </r>
       <r>    8.5033    0.0000 </r>
       <r>    8.5096    0.0000 </r>
       <r>    8.5200    0.0000 </r>
       <r>    8.5472    0.0000 </r>
      </set>
      <set comment="kpoint 2">
       <r>   -5.9932    1.0000 </r>
       <r>   -5.4679    1.0000 </r>
       <r>   -5.4646    1.0000 </r>
       <r>   -5.4617    1.0000 </r>
       <r>   -4.9685    1.0000 </r>
       <r>   -4.9654    1.0000 </r>
       <r>   -4.9626    1.0000 </r>
       <r>   -4.5323    1.0000 </r>
       <r>   -4.4358    1.0000 </r>
       <r>   -4.4324    1.0000 </r>
       <r>   -4.4292    1.0000 </r>
       <r>   -4.0263    1.0000 </r>
       <r>   -4.0187    1.0000 </r>
       <r>   -4.0159    1.0000 </r>
       <r>   -4.0153    1.0000 </r>
       <r>   -4.0145    1.0000 </r>
       <r>   -4.0081    1.0000 </r>
       <r>   -3.8265    1.0000 </r>
       <r>   -3.8243    1.0000 </r>
       <r>   -3.8220    1.0000 </r>
       <r>   -3.3322    1.0000 </r>
       <r>   -3.3283    1.0000 </r>
       <r>   -3.3246    1.0000 </r>
       <r>   -2.9639    1.0000 </r>
       <r>   -2.9592    1.0000 </r>
       <r>   -2.9545    1.0000 </r>
       <r>   -2.7980    1.0000 </r>
       <r>   -2.7936    1.0000 </r>
       <r>   -2.7905    1.0000 </r>
       <r>   -2.7904    1.0000 </r>
       <r>   -2.7886    1.0000 </r>
       <r>   -2.7837    1.0000 </r>
       <r>   -1.2541    1.0000 </r>
       <r>   -1.2523    1.0000 </r>
       <r>   -1.2494    1.0000 </r>
       <r>   -1.2482    1.0000 </r>
       <r>   -1.2458    1.0000 </r>
       <r>   -1.2436    1.0000 </r>
       <r>   -1.1565    1.0000 </r>
       <r>   -1.1509    1.0000 </r>
       <r>   -1.1456    1.0000 </r>
       <r>   -1.0353    1.0000 </r>
       <r>   -1.0329    1.0000 </r>
       <r>   -1.0300    1.0000 </r>
       <r>   -0.9511    1.0000 </r>
       <r>   -0.9469    1.0000 </r>
       <r>   -0.9421    1.0000 </r>
       <r>   -0.2445    1.0000 </r>
       <r>   -0.1677    1.0000 </r>
       <r>   -0.1644    1.0000 </r>
       <r>   -0.1599    1.0000 </r>
       <r>   -0.1596    1.0000 </r>
       <r>   -0.1565    1.0000 </r>
       <r>   -0.1525    1.0000 </r>
       <r>    0.7123    1.0000 </r>
       <r>    0.7142    1.0000 </r>
       <r>    0.7164    1.0000 </r>
       <r>    1.0455    1.0000 </r>
       <r>    1.0470    1.0000 </r>
       <r>    1.0487    1.0000 </r>
       <r>    1.6542    1.0000 </r>
       <r>    1.6548    1.0000 </r>
       <r>    1.6552    1.0000 </r>
       <r>    1.6573    1.0000 </r>
       <r>    1.6589    1.0000 </r>
       <r>    1.6611    1.0000 </r>
       <r>    1.7140    1.0000 </r>
       <r>    1.7159    1.0000 </r>
       <r>    1.7185    1.0000 </r>
       <r>    2.2648    1.0000 </r>
       <r>    2.2678    1.0000 </r>
       <r>    2.2705    1.0000 </r>
       <r>    2.3645    1.0000 </r>
       <r>    2.3664    1.0000 </r>
       <r>    2.3713    1.0000 </r>
       <r>    2.3719    1.0000 </r>
       <r>    2.3752    1.0000 </r>
       <r>    2.3762    1.0000 </r>
       <r>    2.4228    1.0000 </r>
       <r>    2.4247    1.0000 </r>
       <r>    2.4272    1.0000 </r>
       <r>    2.7296    1.0000 </r>
       <r>    2.7341    1.0000 </r>
       <r>    2.7350    1.0000 </r>
       <r>    2.7357    1.0000 </r>
       <r>    2.7368    1.0000 </r>
       <r>    2.7384    1.0000 </r>
       <r>    2.9972    1.0000 </r>
       <r>    2.9995    1.0000 </r>
       <r>    3.0010    1.0000 </r>
       <r>    3.0116    1.0000 </r>
       <r>    3.0140    1.0000 </r>
       <r>    3.0150    1.0000 </r>
       <r>    3.3597    1.0000 </r>
       <r>    3.3621    1.0000 </r>
       <r>    3.3637    1.0000 </r>
       <r>    3.3809    1.0000 </r>
       <r>    3.3843    1.0000 </r>
       <r>    3.3883    1.0000 </r>
       <r>    3.4649    1.0000 </r>
       <r>    3.4667    1.0000 </r>
       <r>    3.4682    1.0000 </r>
       <r>    3.7349    1.0000 </r>
       <r>    3.7397    1.0000 </r>
       <r>    3.7417    1.0000 </r>
       <r>    3.7423    1.0000 </r>
       <r>    3.7435    1.0000 </r>
       <r>    3.7454    1.0000 </r>
       <r>    3.7786    1.0000 </r>
       <r>    3.7814    1.0000 </r>
       <r>    3.7824    1.0000 </r>
       <r>    4.0402    1.0000 </r>
       <r>    4.0951    1.0000 </r>
       <r>    4.0986    1.0000 </r>
       <r>    4.1005    1.0000 </r>
       <r>    4.3389    1.0000 </r>
       <r>    4.3412    1.0000 </r>
       <r>    4.3432    1.0000 </r>
       <r>    4.4025    1.0000 </r>
       <r>    4.4056    1.0000 </r>
       <r>    4.4093    1.0000 </r>
       <r>    4.5629    1.0000 </r>
       <r>    4.5630    1.0000 </r>
       <r>    4.8671    1.0000 </r>
       <r>    4.8703    1.0000 </r>
       <r>    4.8729    1.0000 </r>
       <r>    5.3497    1.0000 </r>
       <r>    5.3498    1.0000 </r>
       <r>    6.5626    0.0000 </r>
       <r>    6.5635    0.0000 </r>
       <r>    6.5641    0.0000 </r>
       <r>    7.0018    0.0000 </r>
       <r>    7.0044    0.0000 </r>
       <r>    7.0070    0.0000 </r>
       <r>    7.2337    0.0000 </r>
       <r>    7.4886    0.0000 </r>
       <r>    7.4908    0.0000 </r>
       <r>    7.4928    0.0000 </r>
       <r>    7.6165    0.0000 </r>
       <r>    7.6197    0.0000 </r>
       <r>    7.6225    0.0000 </r>
       <r>    7.7769    0.0000 </r>
       <r>    7.7798    0.0000 </r>
       <r>    7.7820    0.0000 </r>
       <r>    7.7991    0.0000 </r>
       <r>    7.8011    0.0000 </r>
       <r>    7.8040    0.0000 </r>
       <r>    8.0248    0.0000 </r>
       <r>    8.0276    0.0000 </r>
       <r>    8.0310    0.0000 </r>
       <r>    8.0321    0.0000 </r>
       <r>    8.0334    0.0000 </r>
       <r>    8.0344    0.0000 </r>
       <r>    8.0813    0.0000 </r>
       <r>    8.2929    0.0000 </r>
       <r>    8.2950    0.0000 </r>
       <r>    8.2970    0.0000 </r>
       <r>    8.4934    0.0000 </r>
       <r>    8.5008    0.0000 </r>
       <r>    8.5022    0.0000 </r>
       <r>    8.5042    0.0000 </r>
       <r>    8.5100    0.0000 </r>
       <r>    8.5240    0.0000 </r>
       <r>    8.5403    0.0000 </r>
      </set>
      <set comment="kpoint 3">
       <r>   -5.9932    1.0000 </r>
       <r>   -5.4682    1.0000 </r>
       <r>   -5.4648    1.0000 </r>
       <r>   -5.4613    1.0000 </r>
       <r>   -4.9689    1.0000 </r>
       <r>   -4.9656    1.0000 </r>
       <r>   -4.9620    1.0000 </r>
       <r>   -4.5321    1.0000 </r>
       <r>   -4.4359    1.0000 </r>
       <r>   -4.4325    1.0000 </r>
       <r>   -4.4291    1.0000 </r>
       <r>   -4.0236    1.0000 </r>
       <r>   -4.0187    1.0000 </r>
       <r>   -4.0171    1.0000 </r>
       <r>   -4.0158    1.0000 </r>
       <r>   -4.0141    1.0000 </r>
       <r>   -4.0096    1.0000 </r>
       <r>   -3.8265    1.0000 </r>
       <r>   -3.8243    1.0000 </r>
       <r>   -3.8220    1.0000 </r>
       <r>   -3.3321    1.0000 </r>
       <r>   -3.3283    1.0000 </r>
       <r>   -3.3246    1.0000 </r>
       <r>   -2.9639    1.0000 </r>
       <r>   -2.9592    1.0000 </r>
       <r>   -2.9545    1.0000 </r>
       <r>   -2.7977    1.0000 </r>
       <r>   -2.7930    1.0000 </r>
       <r>   -2.7913    1.0000 </r>
       <r>   -2.7904    1.0000 </r>
       <r>   -2.7886    1.0000 </r>
       <r>   -2.7837    1.0000 </r>
       <r>   -1.2575    1.0000 </r>
       <r>   -1.2519    1.0000 </r>
       <r>   -1.2494    1.0000 </r>
       <r>   -1.2481    1.0000 </r>
       <r>   -1.2457    1.0000 </r>
       <r>   -1.2404    1.0000 </r>
       <r>   -1.1568    1.0000 </r>
       <r>   -1.1510    1.0000 </r>
       <r>   -1.1457    1.0000 </r>
       <r>   -1.0353    1.0000 </r>
       <r>   -1.0328    1.0000 </r>
       <r>   -1.0298    1.0000 </r>
       <r>   -0.9538    1.0000 </r>
       <r>   -0.9468    1.0000 </r>
       <r>   -0.9395    1.0000 </r>
       <r>   -0.2445    1.0000 </r>
       <r>   -0.1687    1.0000 </r>
       <r>   -0.1645    1.0000 </r>
       <r>   -0.1611    1.0000 </r>
       <r>   -0.1592    1.0000 </r>
       <r>   -0.1555    1.0000 </r>
       <r>   -0.1516    1.0000 </r>
       <r>    0.7075    1.0000 </r>
       <r>    0.7143    1.0000 </r>
       <r>    0.7210    1.0000 </r>
       <r>    1.0451    1.0000 </r>
       <r>    1.0471    1.0000 </r>
       <r>    1.0491    1.0000 </r>
       <r>    1.6531    1.0000 </r>
       <r>    1.6546    1.0000 </r>
       <r>    1.6567    1.0000 </r>
       <r>    1.6573    1.0000 </r>
       <r>    1.6590    1.0000 </r>
       <r>    1.6606    1.0000 </r>
       <r>    1.7139    1.0000 </r>
       <r>    1.7162    1.0000 </r>
       <r>    1.7184    1.0000 </r>
       <r>    2.2648    1.0000 </r>
       <r>    2.2678    1.0000 </r>
       <r>    2.2705    1.0000 </r>
       <r>    2.3667    1.0000 </r>
       <r>    2.3677    1.0000 </r>
       <r>    2.3696    1.0000 </r>
       <r>    2.3722    1.0000 </r>
       <r>    2.3735    1.0000 </r>
       <r>    2.3742    1.0000 </r>
       <r>    2.4223    1.0000 </r>
       <r>    2.4253    1.0000 </r>
       <r>    2.4285    1.0000 </r>
       <r>    2.7293    1.0000 </r>
       <r>    2.7324    1.0000 </r>
       <r>    2.7344    1.0000 </r>
       <r>    2.7356    1.0000 </r>
       <r>    2.7376    1.0000 </r>
       <r>    2.7405    1.0000 </r>
       <r>    2.9973    1.0000 </r>
       <r>    2.9995    1.0000 </r>
       <r>    3.0009    1.0000 </r>
       <r>    3.0119    1.0000 </r>
       <r>    3.0134    1.0000 </r>
       <r>    3.0152    1.0000 </r>
       <r>    3.3577    1.0000 </r>
       <r>    3.3619    1.0000 </r>
       <r>    3.3657    1.0000 </r>
       <r>    3.3814    1.0000 </r>
       <r>    3.3842    1.0000 </r>
       <r>    3.3881    1.0000 </r>
       <r>    3.4639    1.0000 </r>
       <r>    3.4665    1.0000 </r>
       <r>    3.4695    1.0000 </r>
       <r>    3.7350    1.0000 </r>
       <r>    3.7385    1.0000 </r>
       <r>    3.7409    1.0000 </r>
       <r>    3.7417    1.0000 </r>
       <r>    3.7437    1.0000 </r>
       <r>    3.7478    1.0000 </r>
       <r>    3.7775    1.0000 </r>
       <r>    3.7806    1.0000 </r>
       <r>    3.7840    1.0000 </r>
       <r>    4.0407    1.0000 </r>
       <r>    4.0952    1.0000 </r>
       <r>    4.0982    1.0000 </r>
       <r>    4.1006    1.0000 </r>
       <r>    4.3379    1.0000 </r>
       <r>    4.3409    1.0000 </r>
       <r>    4.3441    1.0000 </r>
       <r>    4.3999    1.0000 </r>
       <r>    4.4056    1.0000 </r>
       <r>    4.4122    1.0000 </r>
       <r>    4.5626    1.0000 </r>
       <r>    4.5629    1.0000 </r>
       <r>    4.8662    1.0000 </r>
       <r>    4.8700    1.0000 </r>
       <r>    4.8743    1.0000 </r>
       <r>    5.3497    1.0000 </r>
       <r>    5.3498    1.0000 </r>
       <r>    6.5626    0.0000 </r>
       <r>    6.5635    0.0000 </r>
       <r>    6.5640    0.0000 </r>
       <r>    6.9991    0.0000 </r>
       <r>    7.0045    0.0000 </r>
       <r>    7.0097    0.0000 </r>
       <r>    7.2337    0.0000 </r>
       <r>    7.4865    0.0000 </r>
       <r>    7.4908    0.0000 </r>
       <r>    7.4949    0.0000 </r>
       <r>    7.6164    0.0000 </r>
       <r>    7.6196    0.0000 </r>
       <r>    7.6225    0.0000 </r>
       <r>    7.7762    0.0000 </r>
       <r>    7.7799    0.0000 </r>
       <r>    7.7832    0.0000 </r>
       <r>    7.7986    0.0000 </r>
       <r>    7.8012    0.0000 </r>
       <r>    7.8039    0.0000 </r>
       <r>    8.0239    0.0000 </r>
       <r>    8.0259    0.0000 </r>
       <r>    8.0293    0.0000 </r>
       <r>    8.0320    0.0000 </r>
       <r>    8.0351    0.0000 </r>
       <r>    8.0371    0.0000 </r>
       <r>    8.0813    0.0000 </r>
       <r>    8.2920    0.0000 </r>
       <r>    8.2950    0.0000 </r>
       <r>    8.2979    0.0000 </r>
       <r>    8.4938    0.0000 </r>
       <r>    8.4978    0.0000 </r>
       <r>    8.5017    0.0000 </r>
       <r>    8.5071    0.0000 </r>
       <r>    8.5093    0.0000 </r>
       <r>    8.5159    0.0000 </r>
       <r>    8.5397    0.0000 </r>
      </set>
     </set>
    </set>
   </array>
  </eigenvalues>
  <separator name="orbital magnetization" >
   <v name="MAGDIPOLOUT">      0.00000000      0.00000000      0.00000000</v>
  </separator>
  <dos>
   <i name="efermi">      5.59886074 </i>
   <total>
    <array>
     <dimension dim="1">gridpoints</dimension>
     <dimension dim="2">spin</dimension>
     <field>energy</field>
     <field>total</field>
     <field>integrated</field>
     <set>
      <set comment="spin 1">
       <r>    -6.7202     0.0000     0.0000 </r>
       <r>    -6.6669     0.0000     0.0000 </r>
       <r>    -6.6136     0.0000     0.0000 </r>
       <r>    -6.5603     0.0000     0.0000 </r>
       <r>    -6.5069     0.0000     0.0000 </r>
       <r>    -6.4536     0.0000     0.0000 </r>
       <r>    -6.4003     0.0000     0.0000 </r>
       <r>    -6.3470     0.0000     0.0000 </r>
       <r>    -6.2937     0.0000     0.0000 </r>
       <r>    -6.2404     0.0000     0.0000 </r>
       <r>    -6.1871     0.0000     0.0000 </r>
       <r>    -6.1337     0.0013     0.0001 </r>
       <r>    -6.0804     0.2538     0.0136 </r>
       <r>    -6.0271     6.0703     0.3372 </r>
       <r>    -5.9738    20.2439     1.4165 </r>
       <r>    -5.9205    10.1981     1.9602 </r>
       <r>    -5.8672     0.7388     1.9996 </r>
       <r>    -5.8138     0.0068     2.0000 </r>
       <r>    -5.7605     0.0000     2.0000 </r>
       <r>    -5.7072     0.0000     2.0000 </r>
       <r>    -5.6539     0.0000     2.0000 </r>
       <r>    -5.6006     0.0072     2.0004 </r>
       <r>    -5.5473     1.1159     2.0599 </r>
       <r>    -5.4940    21.9629     3.2308 </r>
       <r>    -5.4406    61.5252     6.5110 </r>
       <r>    -5.3873    26.2982     7.9131 </r>
       <r>    -5.3340     1.6169     7.9993 </r>
       <r>    -5.2807     0.0127     8.0000 </r>
       <r>    -5.2274     0.0000     8.0000 </r>
       <r>    -5.1741     0.0000     8.0000 </r>
       <r>    -5.1208     0.0007     8.0000 </r>
       <r>    -5.0674     0.2263     8.0121 </r>
       <r>    -5.0141     9.3504     8.5106 </r>
       <r>    -4.9608    52.6184    11.3160 </r>
       <r>    -4.9075    44.6165    13.6947 </r>
       <r>    -4.8542     5.6318    13.9949 </r>
       <r>    -4.8009     0.0948    14.0000 </r>
       <r>    -4.7476     0.0002    14.0000 </r>
       <r>    -4.6942     0.0001    14.0000 </r>
       <r>    -4.6409     0.0395    14.0021 </r>
       <r>    -4.5876     2.1603    14.1173 </r>
       <r>    -4.5343    15.9119    14.9656 </r>
       <r>    -4.4810    26.2760    16.3665 </r>
       <r>    -4.4277    55.3956    19.3199 </r>
       <r>    -4.3743    44.5729    21.6963 </r>
       <r>    -4.3210     5.6015    21.9950 </r>
       <r>    -4.2677     0.0940    22.0000 </r>
       <r>    -4.2144     0.0002    22.0000 </r>
       <r>    -4.1611     0.0057    22.0003 </r>
       <r>    -4.1078     1.1792    22.0632 </r>
       <r>    -4.0545    31.1371    23.7232 </r>
       <r>    -4.0011   117.6322    29.9948 </r>
       <r>    -3.9478    69.0269    33.6749 </r>
       <r>    -3.8945     8.6853    34.1380 </r>
       <r>    -3.8412    33.0090    35.8979 </r>
       <r>    -3.7879    59.8348    39.0880 </r>
       <r>    -3.7346    16.4718    39.9661 </r>
       <r>    -3.6813     0.6320    39.9998 </r>
       <r>    -3.6279     0.0030    40.0000 </r>
       <r>    -3.5746     0.0000    40.0000 </r>
       <r>    -3.5213     0.0000    40.0000 </r>
       <r>    -3.4680     0.0047    40.0002 </r>
       <r>    -3.4147     0.8389    40.0450 </r>
       <r>    -3.3614    18.9817    41.0570 </r>
       <r>    -3.3081    60.8055    44.2988 </r>
       <r>    -3.2547    29.7703    45.8860 </r>
       <r>    -3.2014     2.1185    45.9990 </r>
       <r>    -3.1481     0.0195    46.0000 </r>
       <r>    -3.0948     0.0077    46.0004 </r>
       <r>    -3.0415     1.1572    46.0621 </r>
       <r>    -2.9882    22.2216    47.2468 </r>
       <r>    -2.9348    61.4045    50.5206 </r>
       <r>    -2.8815    27.3422    51.9784 </r>
       <r>    -2.8282    33.4307    53.7607 </r>
       <r>    -2.7749   118.3114    60.0685 </r>
       <r>    -2.7216    67.8913    63.6881 </r>
       <r>    -2.6683     5.7850    63.9965 </r>
       <r>    -2.6150     0.0654    64.0000 </r>
       <r>    -2.5616     0.0001    64.0000 </r>
       <r>    -2.5083     0.0000    64.0000 </r>
       <r>    -2.4550     0.0000    64.0000 </r>
       <r>    -2.4017     0.0000    64.0000 </r>
       <r>    -2.3484     0.0000    64.0000 </r>
       <r>    -2.2951     0.0000    64.0000 </r>
       <r>    -2.2418     0.0000    64.0000 </r>
       <r>    -2.1884     0.0000    64.0000 </r>
       <r>    -2.1351     0.0000    64.0000 </r>
       <r>    -2.0818     0.0000    64.0000 </r>
       <r>    -2.0285     0.0000    64.0000 </r>
       <r>    -1.9752     0.0000    64.0000 </r>
       <r>    -1.9219     0.0000    64.0000 </r>
       <r>    -1.8685     0.0000    64.0000 </r>
       <r>    -1.8152     0.0000    64.0000 </r>
       <r>    -1.7619     0.0000    64.0000 </r>
       <r>    -1.7086     0.0000    64.0000 </r>
       <r>    -1.6553     0.0000    64.0000 </r>
       <r>    -1.6020     0.0000    64.0000 </r>
       <r>    -1.5487     0.0000    64.0000 </r>
       <r>    -1.4953     0.0000    64.0000 </r>
       <r>    -1.4420     0.0000    64.0000 </r>
       <r>    -1.3887     0.0098    64.0005 </r>
       <r>    -1.3354     1.7016    64.0912 </r>
       <r>    -1.2821    37.8682    66.1102 </r>
       <r>    -1.2288   122.7121    72.6526 </r>
       <r>    -1.1755    86.1331    77.2447 </r>
       <r>    -1.1221    66.3198    80.7806 </r>
       <r>    -1.0688    39.0303    82.8615 </r>
       <r>    -1.0155    64.0749    86.2776 </r>
       <r>    -0.9622    67.0591    89.8528 </r>
       <r>    -0.9089    61.4723    93.1302 </r>
       <r>    -0.8556    15.7128    93.9680 </r>
       <r>    -0.8023     0.5982    93.9998 </r>
       <r>    -0.7489     0.0029    94.0000 </r>
       <r>    -0.6956     0.0000    94.0000 </r>
       <r>    -0.6423     0.0000    94.0000 </r>
       <r>    -0.5890     0.0000    94.0000 </r>
       <r>    -0.5357     0.0000    94.0000 </r>
       <r>    -0.4824     0.0000    94.0000 </r>
       <r>    -0.4290     0.0000    94.0000 </r>
       <r>    -0.3757     0.0039    94.0002 </r>
       <r>    -0.3224     0.5149    94.0277 </r>
       <r>    -0.2691     8.8797    94.5011 </r>
       <r>    -0.2158    33.7498    96.3004 </r>
       <r>    -0.1625   100.6023   101.6640 </r>
       <r>    -0.1092   101.4971   107.0753 </r>
       <r>    -0.0558    16.9454   107.9788 </r>
       <r>    -0.0025     0.3968   107.9999 </r>
       <r>     0.0508     0.0012   108.0000 </r>
       <r>     0.1041     0.0000   108.0000 </r>
       <r>     0.1574     0.0000   108.0000 </r>
       <r>     0.2107     0.0000   108.0000 </r>
       <r>     0.2640     0.0000   108.0000 </r>
       <r>     0.3174     0.0000   108.0000 </r>
       <r>     0.3707     0.0000   108.0000 </r>
       <r>     0.4240     0.0000   108.0000 </r>
       <r>     0.4773     0.0000   108.0000 </r>
       <r>     0.5306     0.0000   108.0000 </r>
       <r>     0.5839     0.0140   108.0007 </r>
       <r>     0.6372     1.6960   108.0912 </r>
       <r>     0.6906    26.6963   109.5145 </r>
       <r>     0.7439    61.2934   112.7823 </r>
       <r>     0.7972    21.7227   113.9405 </r>
       <r>     0.8505     1.1093   113.9996 </r>
       <r>     0.9038     0.0102   114.0002 </r>
       <r>     0.9571     0.6180   114.0331 </r>
       <r>     1.0105    16.2975   114.9020 </r>
       <r>     1.0638    59.7650   118.0884 </r>
       <r>     1.1171    33.1600   119.8563 </r>
       <r>     1.1704     2.6679   119.9985 </r>
       <r>     1.2237     0.0277   120.0000 </r>
       <r>     1.2770     0.0000   120.0000 </r>
       <r>     1.3303     0.0000   120.0000 </r>
       <r>     1.3837     0.0000   120.0000 </r>
       <r>     1.4370     0.0000   120.0000 </r>
       <r>     1.4903     0.0003   120.0000 </r>
       <r>     1.5436     0.1561   120.0083 </r>
       <r>     1.5969    10.0722   120.5453 </r>
       <r>     1.6502    88.9995   125.2903 </r>
       <r>     1.7035   145.2822   133.0360 </r>
       <r>     1.7569    78.4943   137.2209 </r>
       <r>     1.8102    14.1659   137.9762 </r>
       <r>     1.8635     0.4448   137.9999 </r>
       <r>     1.9168     0.0018   138.0000 </r>
       <r>     1.9701     0.0000   138.0000 </r>
       <r>     2.0234     0.0000   138.0000 </r>
       <r>     2.0767     0.0000   138.0000 </r>
       <r>     2.1301     0.0058   138.0003 </r>
       <r>     2.1834     0.9685   138.0519 </r>
       <r>     2.2367    20.5053   139.1452 </r>
       <r>     2.2900    63.8885   142.5514 </r>
       <r>     2.3433    76.0072   146.6037 </r>
       <r>     2.3966   147.4053   154.4626 </r>
       <r>     2.4500   111.2645   160.3946 </r>
       <r>     2.5033    28.5483   161.9167 </r>
       <r>     2.5566     1.5512   161.9994 </r>
       <r>     2.6099     0.0597   162.0026 </r>
       <r>     2.6632     4.8257   162.2598 </r>
       <r>     2.7165    63.0777   165.6228 </r>
       <r>     2.7698   120.4747   172.0459 </r>
       <r>     2.8232    35.1926   173.9222 </r>
       <r>     2.8765     1.4872   174.0015 </r>
       <r>     2.9298     3.7817   174.2031 </r>
       <r>     2.9831    54.6422   177.1163 </r>
       <r>     3.0364   121.0132   183.5681 </r>
       <r>     3.0897    43.2632   185.8747 </r>
       <r>     3.1430     2.3330   185.9991 </r>
       <r>     3.1964     0.0170   186.0000 </r>
       <r>     3.2497     0.0959   186.0051 </r>
       <r>     3.3030     6.5848   186.3562 </r>
       <r>     3.3563    66.7577   189.9154 </r>
       <r>     3.4096   120.7334   196.3522 </r>
       <r>     3.4629    80.7358   200.6567 </r>
       <r>     3.5162    53.6342   203.5162 </r>
       <r>     3.5696     8.8701   203.9891 </r>
       <r>     3.6229     0.3026   204.0052 </r>
       <r>     3.6762     7.6460   204.4128 </r>
       <r>     3.7295    83.9919   208.8909 </r>
       <r>     3.7828   164.9852   217.6870 </r>
       <r>     3.8361    73.4094   221.6008 </r>
       <r>     3.8895     7.3630   221.9934 </r>
       <r>     3.9428     0.2317   222.0057 </r>
       <r>     3.9961     4.0454   222.2214 </r>
       <r>     4.0494    27.9097   223.7094 </r>
       <r>     4.1027    66.1907   227.2384 </r>
       <r>     4.1560    46.0675   229.6945 </r>
       <r>     4.2093     5.6480   229.9956 </r>
       <r>     4.2627     1.6014   230.0810 </r>
       <r>     4.3160    26.1019   231.4726 </r>
       <r>     4.3693    78.1096   235.6370 </r>
       <r>     4.4226    82.2421   240.0217 </r>
       <r>     4.4759    34.8616   241.8803 </r>
       <r>     4.5292    15.0354   242.6820 </r>
       <r>     4.5825    40.5773   244.8453 </r>
       <r>     4.6359    20.1984   245.9222 </r>
       <r>     4.6892     1.4461   245.9993 </r>
       <r>     4.7425     0.0313   246.0010 </r>
       <r>     4.7958     2.0186   246.1086 </r>
       <r>     4.8491    29.1345   247.6619 </r>
       <r>     4.9024    60.9825   250.9132 </r>
       <r>     4.9558    19.4973   251.9527 </r>
       <r>     5.0091     0.8830   251.9997 </r>
       <r>     5.0624     0.0050   252.0000 </r>
       <r>     5.1157     0.0000   252.0000 </r>
       <r>     5.1690     0.0000   252.0000 </r>
       <r>     5.2223     0.0118   252.0006 </r>
       <r>     5.2756     1.3425   252.0722 </r>
       <r>     5.3290    19.5273   253.1133 </r>
       <r>     5.3823    40.7336   255.2850 </r>
       <r>     5.4356    12.8415   255.9696 </r>
       <r>     5.4889     0.5663   255.9998 </r>
       <r>     5.5422     0.0031   256.0000 </r>
       <r>     5.5955     0.0000   256.0000 </r>
       <r>     5.6488     0.0000   256.0000 </r>
       <r>     5.7022     0.0000   256.0000 </r>
       <r>     5.7555     0.0000   256.0000 </r>
       <r>     5.8088     0.0000   256.0000 </r>
       <r>     5.8621     0.0000   256.0000 </r>
       <r>     5.9154     0.0000   256.0000 </r>
       <r>     5.9687     0.0000   256.0000 </r>
       <r>     6.0220     0.0000   256.0000 </r>
       <r>     6.0754     0.0000   256.0000 </r>
       <r>     6.1287     0.0000   256.0000 </r>
       <r>     6.1820     0.0000   256.0000 </r>
       <r>     6.2353     0.0000   256.0000 </r>
       <r>     6.2886     0.0000   256.0000 </r>
       <r>     6.3419     0.0000   256.0000 </r>
       <r>     6.3953     0.0001   256.0000 </r>
       <r>     6.4486     0.0655   256.0035 </r>
       <r>     6.5019     4.5495   256.2461 </r>
       <r>     6.5552    41.3603   258.4512 </r>
       <r>     6.6085    55.2083   261.3946 </r>
       <r>     6.6618    11.0534   261.9839 </r>
       <r>     6.7151     0.3009   261.9999 </r>
       <r>     6.7685     0.0010   262.0000 </r>
       <r>     6.8218     0.0000   262.0000 </r>
       <r>     6.8751     0.0152   262.0008 </r>
       <r>     6.9284     1.8025   262.0969 </r>
       <r>     6.9817    27.5798   263.5673 </r>
       <r>     7.0350    61.2526   266.8330 </r>
       <r>     7.0883    20.8681   267.9456 </r>
       <r>     7.1417     1.1874   268.0089 </r>
       <r>     7.1950     4.9585   268.2733 </r>
       <r>     7.2483    19.6320   269.3199 </r>
       <r>     7.3016    11.7276   269.9452 </r>
       <r>     7.3549     1.0239   269.9998 </r>
       <r>     7.4082     1.1294   270.0600 </r>
       <r>     7.4615    21.9806   271.2319 </r>
       <r>     7.5149    61.6998   274.5214 </r>
       <r>     7.5682    34.3939   276.3551 </r>
       <r>     7.6215    52.0729   279.1314 </r>
       <r>     7.6748    47.3101   281.6537 </r>
       <r>     7.7281    16.7543   282.5469 </r>
       <r>     7.7814    80.5687   286.8425 </r>
       <r>     7.8348   108.0649   292.6039 </r>
       <r>     7.8881    25.2618   293.9507 </r>
       <r>     7.9414     2.2973   294.0732 </r>
       <r>     7.9947    34.2101   295.8971 </r>
       <r>     8.0480   125.8193   302.6052 </r>
       <r>     8.1013    85.2303   307.1492 </r>
       <r>     8.1546    15.1951   307.9593 </r>
       <r>     8.2080     1.5446   308.0417 </r>
       <r>     8.2613    18.4241   309.0240 </r>
       <r>     8.3146    60.7158   312.2610 </r>
       <r>     8.3679    30.4137   313.8825 </r>
       <r>     8.4212     4.5543   314.1253 </r>
       <r>     8.4745    44.2455   316.4843 </r>
       <r>     8.5278   132.4538   323.5460 </r>
       <r>     8.5812    74.5253   327.5193 </r>
       <r>     8.6345     8.8055   327.9888 </r>
       <r>     8.6878     0.2094   328.0000 </r>
       <r>     8.7411     0.0008   328.0000 </r>
       <r>     8.7944     0.0000   328.0000 </r>
       <r>     8.8477     0.0000   328.0000 </r>
       <r>     8.9010     0.0000   328.0000 </r>
       <r>     8.9544     0.0000   328.0000 </r>
       <r>     9.0077     0.0000   328.0000 </r>
       <r>     9.0610     0.0000   328.0000 </r>
       <r>     9.1143     0.0000   328.0000 </r>
       <r>     9.1676     0.0000   328.0000 </r>
       <r>     9.2209     0.0000   328.0000 </r>
       <r>     9.2743     0.0000   328.0000 </r>
      </set>
     </set>
    </array>
   </total>
  </dos>
 </calculation>
 <structure name="finalpos" >
  <crystal>
   <varray name="basis" >
    <v>      10.93252578       0.00000000       0.00000000 </v>
    <v>       0.00000000      10.93252578       0.00000000 </v>
    <v>       0.00000000       0.00000000      10.93252578 </v>
   </varray>
   <i name="volume">   1306.65679237 </i>
   <varray name="rec_basis" >
    <v>       0.09147017       0.00000000       0.00000000 </v>
    <v>       0.00000000       0.09147017       0.00000000 </v>
    <v>       0.00000000       0.00000000       0.09147017 </v>
   </varray>
  </crystal>
  <varray name="positions" >
   <v>       0.44024411       0.43750000       0.43750000 </v>
   <v>       0.93750000       0.43750000       0.43750000 </v>
   <v>       0.43750000       0.93750000       0.43750000 </v>
   <v>       0.93750000       0.93750000       0.43750000 </v>
   <v>       0.43750000       0.43750000       0.93750000 </v>
   <v>       0.93750000       0.43750000       0.93750000 </v>
   <v>       0.43750000       0.93750000       0.93750000 </v>
   <v>       0.93750000       0.93750000       0.93750000 </v>
   <v>       0.43750000       0.18750000       0.18750000 </v>
   <v>       0.93475589       0.18750000       0.18750000 </v>
   <v>       0.43750000       0.68750000       0.18750000 </v>
   <v>       0.93750000       0.68750000       0.18750000 </v>
   <v>       0.43750000       0.18750000       0.68750000 </v>
   <v>       0.93750000       0.18750000       0.68750000 </v>
   <v>       0.43750000       0.68750000       0.68750000 </v>
   <v>       0.93750000       0.68750000       0.68750000 </v>
   <v>       0.18750000       0.43750000       0.18750000 </v>
   <v>       0.68750000       0.43750000       0.18750000 </v>
   <v>       0.18750000       0.93750000       0.18750000 </v>
   <v>       0.68750000       0.93750000       0.18750000 </v>
   <v>       0.18750000       0.43750000       0.68750000 </v>
   <v>       0.68750000       0.43750000       0.68750000 </v>
   <v>       0.18750000       0.93750000       0.68750000 </v>
   <v>       0.68750000       0.93750000       0.68750000 </v>
   <v>       0.18750000       0.18750000       0.43750000 </v>
   <v>       0.68750000       0.18750000       0.43750000 </v>
   <v>       0.18750000       0.68750000       0.43750000 </v>
   <v>       0.68750000       0.68750000       0.43750000 </v>
   <v>       0.18750000       0.18750000       0.93750000 </v>
   <v>       0.68750000       0.18750000       0.93750000 </v>
   <v>       0.18750000       0.68750000       0.93750000 </v>
   <v>       0.68750000       0.68750000       0.93750000 </v>
   <v>       0.06250000       0.06250000       0.06250000 </v>
   <v>       0.56250000       0.06250000       0.06250000 </v>
   <v>       0.06250000       0.56250000       0.06250000 </v>
   <v>       0.56250000       0.56250000       0.06250000 </v>
   <v>       0.06250000       0.06250000       0.56250000 </v>
   <v>       0.56250000       0.06250000       0.56250000 </v>
   <v>       0.06250000       0.56250000       0.56250000 </v>
   <v>       0.56250000       0.56250000       0.56250000 </v>
   <v>       0.06250000       0.31250000       0.31250000 </v>
   <v>       0.56250000       0.31250000       0.31250000 </v>
   <v>       0.06250000       0.81250000       0.31250000 </v>
   <v>       0.56250000       0.81250000       0.31250000 </v>
   <v>       0.06250000       0.31250000       0.81250000 </v>
   <v>       0.56250000       0.31250000       0.81250000 </v>
   <v>       0.06250000       0.81250000       0.81250000 </v>
   <v>       0.56250000       0.81250000       0.81250000 </v>
   <v>       0.31250000       0.06250000       0.31250000 </v>
   <v>       0.81250000       0.06250000       0.31250000 </v>
   <v>       0.31250000       0.56250000       0.31250000 </v>
   <v>       0.81250000       0.56250000       0.31250000 </v>
   <v>       0.31250000       0.06250000       0.81250000 </v>
   <v>       0.81250000       0.06250000       0.81250000 </v>
   <v>       0.31250000       0.56250000       0.81250000 </v>
   <v>       0.81250000       0.56250000       0.81250000 </v>
   <v>       0.31250000       0.31250000       0.06250000 </v>
   <v>       0.81250000       0.31250000       0.06250000 </v>
   <v>       0.31250000       0.81250000       0.06250000 </v>
   <v>       0.81250000       0.81250000       0.06250000 </v>
   <v>       0.31250000       0.31250000       0.56250000 </v>
   <v>       0.81250000       0.31250000       0.56250000 </v>
   <v>       0.31250000       0.81250000       0.56250000 </v>
   <v>       0.81250000       0.81250000       0.56250000 </v>
  </varray>
 </structure>
</modeling>
