
     Program PWSCF v.5.3.0 (svn rev. 11974) starts on  3Feb2016 at 13:38:57 

     This program is part of the open-source Quantum ESPRESSO suite
     for quantum simulation of materials; please cite
         "P. Giannozzi et al., J. Phys.:Condens. Matter 21 395502 (2009);
          URL http://www.quantum-espresso.org", 
     in publications or presentations arising from this work. More details at
     http://www.quantum-espresso.org/quote

     Parallel version (MPI), running on    16 processors
     R & G space division:  proc/nbgrp/npool/nimage =      16
     Reading input from Si.in

     Current dimensions of program PWSCF are:
     Max number of different atomic species (ntypx) = 10
     Max number of k-points (npk) =  40000
     Max angular momentum in pseudopotentials (lmaxx) =  3
               file Si.pbe-n-kjpaw_psl.0.1.UPF: wavefunction(s)  3S renormalized

     Subspace diagonalization in iterative solution of the eigenvalue problem:
     one sub-group per k-point group (pool) will be used
     scalapack distributed-memory algorithm (size of sub-group:  2*  2 procs)

 
     Parallelization info
     --------------------
     sticks:   dense  smooth     PW     G-vecs:    dense   smooth      PW
     Min         424     424    109                26332    26332    3467
     Max         425     425    110                26336    26336    3472
     Sum        6785    6785   1757               421349   421349   55515
 


     bravais-lattice index     =            0
     lattice parameter (alat)  =      20.6591  a.u.
     unit-cell volume          =    8817.2783 (a.u.)^3
     number of atoms/cell      =           64
     number of atomic types    =            1
     number of electrons       =       256.00
     number of Kohn-Sham states=          154
     kinetic-energy cutoff     =      50.0000  Ry
     charge density cutoff     =     200.0000  Ry
     convergence threshold     =      1.0E-09
     mixing beta               =       0.7000
     number of iterations used =            8  plain     mixing
     Exchange-correlation      =  SLA  PW   PBX  PBC ( 1  4  3  4 0 0)

     celldm(1)=  20.659106  celldm(2)=   0.000000  celldm(3)=   0.000000
     celldm(4)=   0.000000  celldm(5)=   0.000000  celldm(6)=   0.000000

     crystal axes: (cart. coord. in units of alat)
               a(1) = (   1.000000   0.000000   0.000000 )  
               a(2) = (   0.000000   1.000000   0.000000 )  
               a(3) = (   0.000000   0.000000   1.000000 )  

     reciprocal axes: (cart. coord. in units 2 pi/alat)
               b(1) = (  1.000000  0.000000  0.000000 )  
               b(2) = (  0.000000  1.000000  0.000000 )  
               b(3) = (  0.000000  0.000000  1.000000 )  


     PseudoPot. # 1 for Si read from file:
     /home/togo/espresso/pseudo/Si.pbe-n-kjpaw_psl.0.1.UPF
     MD5 check sum: b9d333a40e496bef61db012f150758bf
     Pseudo is Projector augmented-wave + core cor, Zval =  4.0
     Generated using "atomic" code by A. Dal Corso  v.5.0.2 svn rev. 9415
     Shape of augmentation charge: PSQ
     Using radial grid of 1141 points,  4 beta functions with: 
                l(1) =   0
                l(2) =   0
                l(3) =   1
                l(4) =   1
     Q(r) pseudized with 0 coefficients 


     atomic species   valence    mass     pseudopotential
        Si             4.00    28.08550     Si( 1.00)

     No symmetry found



   Cartesian axes

     site n.     atom                  positions (alat units)
         1           Si  tau(   1) = (   0.4404043   0.4375000   0.4375000  )
         2           Si  tau(   2) = (   0.9375000   0.4375000   0.4375000  )
         3           Si  tau(   3) = (   0.4375000   0.9375000   0.4375000  )
         4           Si  tau(   4) = (   0.9375000   0.9375000   0.4375000  )
         5           Si  tau(   5) = (   0.4375000   0.4375000   0.9375000  )
         6           Si  tau(   6) = (   0.9375000   0.4375000   0.9375000  )
         7           Si  tau(   7) = (   0.4375000   0.9375000   0.9375000  )
         8           Si  tau(   8) = (   0.9375000   0.9375000   0.9375000  )
         9           Si  tau(   9) = (   0.4375000   0.1875000   0.1875000  )
        10           Si  tau(  10) = (   0.9375000   0.1875000   0.1875000  )
        11           Si  tau(  11) = (   0.4375000   0.6875000   0.1875000  )
        12           Si  tau(  12) = (   0.9375000   0.6875000   0.1875000  )
        13           Si  tau(  13) = (   0.4375000   0.1875000   0.6875000  )
        14           Si  tau(  14) = (   0.9375000   0.1875000   0.6875000  )
        15           Si  tau(  15) = (   0.4375000   0.6875000   0.6875000  )
        16           Si  tau(  16) = (   0.9375000   0.6875000   0.6875000  )
        17           Si  tau(  17) = (   0.1875000   0.4375000   0.1875000  )
        18           Si  tau(  18) = (   0.6875000   0.4375000   0.1875000  )
        19           Si  tau(  19) = (   0.1904043   0.9375000   0.1875000  )
        20           Si  tau(  20) = (   0.6875000   0.9375000   0.1875000  )
        21           Si  tau(  21) = (   0.1875000   0.4375000   0.6875000  )
        22           Si  tau(  22) = (   0.6875000   0.4375000   0.6875000  )
        23           Si  tau(  23) = (   0.1875000   0.9375000   0.6875000  )
        24           Si  tau(  24) = (   0.6875000   0.9375000   0.6875000  )
        25           Si  tau(  25) = (   0.1875000   0.1875000   0.4375000  )
        26           Si  tau(  26) = (   0.6875000   0.1875000   0.4375000  )
        27           Si  tau(  27) = (   0.1875000   0.6875000   0.4375000  )
        28           Si  tau(  28) = (   0.6875000   0.6875000   0.4375000  )
        29           Si  tau(  29) = (   0.1875000   0.1875000   0.9375000  )
        30           Si  tau(  30) = (   0.6875000   0.1875000   0.9375000  )
        31           Si  tau(  31) = (   0.1875000   0.6875000   0.9375000  )
        32           Si  tau(  32) = (   0.6875000   0.6875000   0.9375000  )
        33           Si  tau(  33) = (   0.0625000   0.0625000   0.0625000  )
        34           Si  tau(  34) = (   0.5625000   0.0625000   0.0625000  )
        35           Si  tau(  35) = (   0.0625000   0.5625000   0.0625000  )
        36           Si  tau(  36) = (   0.5625000   0.5625000   0.0625000  )
        37           Si  tau(  37) = (   0.0625000   0.0625000   0.5625000  )
        38           Si  tau(  38) = (   0.5625000   0.0625000   0.5625000  )
        39           Si  tau(  39) = (   0.0625000   0.5625000   0.5625000  )
        40           Si  tau(  40) = (   0.5625000   0.5625000   0.5625000  )
        41           Si  tau(  41) = (   0.0625000   0.3125000   0.3125000  )
        42           Si  tau(  42) = (   0.5625000   0.3125000   0.3125000  )
        43           Si  tau(  43) = (   0.0625000   0.8125000   0.3125000  )
        44           Si  tau(  44) = (   0.5625000   0.8125000   0.3125000  )
        45           Si  tau(  45) = (   0.0625000   0.3125000   0.8125000  )
        46           Si  tau(  46) = (   0.5625000   0.3125000   0.8125000  )
        47           Si  tau(  47) = (   0.0625000   0.8125000   0.8125000  )
        48           Si  tau(  48) = (   0.5625000   0.8125000   0.8125000  )
        49           Si  tau(  49) = (   0.3125000   0.0625000   0.3125000  )
        50           Si  tau(  50) = (   0.8125000   0.0625000   0.3125000  )
        51           Si  tau(  51) = (   0.3125000   0.5625000   0.3125000  )
        52           Si  tau(  52) = (   0.8125000   0.5625000   0.3125000  )
        53           Si  tau(  53) = (   0.3125000   0.0625000   0.8125000  )
        54           Si  tau(  54) = (   0.8125000   0.0625000   0.8125000  )
        55           Si  tau(  55) = (   0.3125000   0.5625000   0.8125000  )
        56           Si  tau(  56) = (   0.8125000   0.5625000   0.8125000  )
        57           Si  tau(  57) = (   0.3125000   0.3125000   0.0625000  )
        58           Si  tau(  58) = (   0.8125000   0.3125000   0.0625000  )
        59           Si  tau(  59) = (   0.3125000   0.8125000   0.0625000  )
        60           Si  tau(  60) = (   0.8125000   0.8125000   0.0625000  )
        61           Si  tau(  61) = (   0.3125000   0.3125000   0.5625000  )
        62           Si  tau(  62) = (   0.8125000   0.3125000   0.5625000  )
        63           Si  tau(  63) = (   0.3125000   0.8125000   0.5625000  )
        64           Si  tau(  64) = (   0.8125000   0.8125000   0.5625000  )

     number of k points=     4  gaussian smearing, width (Ry)=  0.0100
                       cart. coord. in units 2pi/alat
        k(    1) = (   0.2500000   0.2500000   0.2500000), wk =   0.5000000
        k(    2) = (  -0.2500000  -0.2500000   0.2500000), wk =   0.5000000
        k(    3) = (  -0.2500000   0.2500000  -0.2500000), wk =   0.5000000
        k(    4) = (   0.2500000  -0.2500000  -0.2500000), wk =   0.5000000

     Dense  grid:   421349 G-vectors     FFT dimensions: (  96,  96,  96)

     Largest allocated arrays     est. size (Mb)     dimensions
        Kohn-Sham Wavefunctions         7.73 Mb     (    3289,  154)
        NL pseudopotentials            25.70 Mb     (    3289,  512)
        Each V/rho on FFT grid          0.84 Mb     (   55296)
        Each G-vector array             0.20 Mb     (   26336)
        G-vector shells                 0.01 Mb     (    1719)
     Largest temporary arrays     est. size (Mb)     dimensions
        Auxiliary wavefunctions        30.91 Mb     (    3289,  616)
        Each subspace H/S matrix        1.45 Mb     (     308,  308)
        Each <psi_i|beta_j> matrix      1.20 Mb     (     512,  154)
        Arrays for rho mixing           6.75 Mb     (   55296,    8)

     Check: negative/imaginary core charge=   -0.000001    0.000000

     Initial potential from superposition of free atoms

     starting charge  255.96421, renormalised to  256.00000
     Starting wfc are  256 randomized atomic wfcs
     Checking if some PAW data can be deallocated... 

     total cpu time spent up to now is       16.3 secs

     per-process dynamical memory:   114.8 Mb

     Self-consistent Calculation

     iteration #  1     ecut=    50.00 Ry     beta=0.70
     Davidson diagonalization with overlap
     ethr =  1.00E-02,  avg # of iterations =  3.0

     Threshold (ethr) on eigenvalues was too large:
     Diagonalizing with lowered threshold

     Davidson diagonalization with overlap
     ethr =  7.00E-04,  avg # of iterations =  1.0

     total cpu time spent up to now is       64.4 secs

     total energy              =   -2990.45696543 Ry
     Harris-Foulkes estimate   =   -2990.87679257 Ry
     estimated scf accuracy    <       1.77308094 Ry

     iteration #  2     ecut=    50.00 Ry     beta=0.70
     Davidson diagonalization with overlap
     ethr =  6.93E-04,  avg # of iterations =  1.0

     total cpu time spent up to now is       79.5 secs

     total energy              =   -2990.52360902 Ry
     Harris-Foulkes estimate   =   -2990.52748129 Ry
     estimated scf accuracy    <       0.07632885 Ry

     iteration #  3     ecut=    50.00 Ry     beta=0.70
     Davidson diagonalization with overlap
     ethr =  2.98E-05,  avg # of iterations = 11.0

     total cpu time spent up to now is      114.7 secs

     total energy              =   -2990.53061087 Ry
     Harris-Foulkes estimate   =   -2990.53136966 Ry
     estimated scf accuracy    <       0.00192745 Ry

     iteration #  4     ecut=    50.00 Ry     beta=0.70
     Davidson diagonalization with overlap
     ethr =  7.53E-07,  avg # of iterations =  7.0

     total cpu time spent up to now is      155.7 secs

     total energy              =   -2990.53042395 Ry
     Harris-Foulkes estimate   =   -2990.53269485 Ry
     estimated scf accuracy    <       0.00729369 Ry

     iteration #  5     ecut=    50.00 Ry     beta=0.70
     Davidson diagonalization with overlap
     ethr =  7.53E-07,  avg # of iterations =  4.5

     total cpu time spent up to now is      181.5 secs

     total energy              =   -2990.53149259 Ry
     Harris-Foulkes estimate   =   -2990.53159549 Ry
     estimated scf accuracy    <       0.00028692 Ry

     iteration #  6     ecut=    50.00 Ry     beta=0.70
     Davidson diagonalization with overlap
     ethr =  1.12E-07,  avg # of iterations =  2.2

     total cpu time spent up to now is      200.2 secs

     total energy              =   -2990.53154522 Ry
     Harris-Foulkes estimate   =   -2990.53156223 Ry
     estimated scf accuracy    <       0.00004858 Ry

     iteration #  7     ecut=    50.00 Ry     beta=0.70
     Davidson diagonalization with overlap
     ethr =  1.90E-08,  avg # of iterations =  2.0

     total cpu time spent up to now is      218.9 secs

     total energy              =   -2990.53155400 Ry
     Harris-Foulkes estimate   =   -2990.53155549 Ry
     estimated scf accuracy    <       0.00000340 Ry

     iteration #  8     ecut=    50.00 Ry     beta=0.70
     Davidson diagonalization with overlap
     ethr =  1.33E-09,  avg # of iterations =  3.0

     total cpu time spent up to now is      242.1 secs

     total energy              =   -2990.53155504 Ry
     Harris-Foulkes estimate   =   -2990.53155524 Ry
     estimated scf accuracy    <       0.00000048 Ry

     iteration #  9     ecut=    50.00 Ry     beta=0.70
     Davidson diagonalization with overlap
     ethr =  1.86E-10,  avg # of iterations =  3.0

     total cpu time spent up to now is      268.0 secs

     total energy              =   -2990.53155505 Ry
     Harris-Foulkes estimate   =   -2990.53155516 Ry
     estimated scf accuracy    <       0.00000019 Ry

     iteration # 10     ecut=    50.00 Ry     beta=0.70
     Davidson diagonalization with overlap
     ethr =  7.57E-11,  avg # of iterations =  2.0

     total cpu time spent up to now is      285.7 secs

     total energy              =   -2990.53155503 Ry
     Harris-Foulkes estimate   =   -2990.53155509 Ry
     estimated scf accuracy    <       0.00000005 Ry

     iteration # 11     ecut=    50.00 Ry     beta=0.70
     Davidson diagonalization with overlap
     ethr =  1.93E-11,  avg # of iterations =  2.0

     total cpu time spent up to now is      304.1 secs

     total energy              =   -2990.53155504 Ry
     Harris-Foulkes estimate   =   -2990.53155504 Ry
     estimated scf accuracy    <          1.4E-09 Ry

     iteration # 12     ecut=    50.00 Ry     beta=0.70
     Davidson diagonalization with overlap
     ethr =  5.66E-13,  avg # of iterations =  3.0

     total cpu time spent up to now is      333.2 secs

     total energy              =   -2990.53155505 Ry
     Harris-Foulkes estimate   =   -2990.53155505 Ry
     estimated scf accuracy    <          1.5E-09 Ry

     iteration # 13     ecut=    50.00 Ry     beta=0.70
     Davidson diagonalization with overlap
     ethr =  5.66E-13,  avg # of iterations =  3.0

     total cpu time spent up to now is      353.2 secs

     End of self-consistent calculation

          k = 0.2500 0.2500 0.2500 ( 52563 PWs)   bands (ev):

    -5.6250  -5.1011  -5.0953  -5.0930  -4.6012  -4.5956  -4.5933  -4.1621
    -4.0677  -4.0620  -4.0592  -3.6567  -3.6512  -3.6466  -3.6459  -3.6432
    -3.6417  -3.4574  -3.4567  -3.4523  -2.9615  -2.9567  -2.9519  -2.5929
    -2.5903  -2.5856  -2.4302  -2.4239  -2.4206  -2.4194  -2.4166  -2.4157
    -0.8891  -0.8800  -0.8776  -0.8763  -0.8728  -0.8711  -0.7843  -0.7786
    -0.7758  -0.6670  -0.6572  -0.6569  -0.5886  -0.5772  -0.5752   0.1225
     0.2016   0.2094   0.2111   0.2128   0.2183   0.2206   1.0764   1.0855
     1.0869   1.4127   1.4208   1.4217   2.0246   2.0257   2.0287   2.0300
     2.0321   2.0346   2.0856   2.0904   2.0919   2.6353   2.6389   2.6402
     2.7392   2.7408   2.7424   2.7445   2.7491   2.7512   2.7935   2.8002
     2.8022   3.0995   3.1060   3.1072   3.1080   3.1112   3.1127   3.3714
     3.3720   3.3748   3.3817   3.3902   3.3909   3.7278   3.7344   3.7352
     3.7514   3.7529   3.7562   3.8378   3.8397   3.8448   4.1051   4.1076
     4.1110   4.1140   4.1151   4.1161   4.1518   4.1537   4.1594   4.4090
     4.4710   4.4721   4.4768   4.7128   4.7149   4.7216   4.7681   4.7767
     4.7779   4.9325   4.9423   5.2421   5.2440   5.2528   5.7207   5.7321
     6.9364   6.9364   6.9409   7.3728   7.3766   7.3831   7.6002   7.8589
     7.8629   7.8685   7.9863   7.9917   7.9927   8.1490   8.1503   8.1555
     8.1679   8.1684   8.1743   8.3920   8.3987   8.4009   8.4022   8.4035
     8.4060   8.4507

          k =-0.2500-0.2500 0.2500 ( 52563 PWs)   bands (ev):

    -5.6251  -5.0988  -5.0962  -5.0937  -4.5994  -4.5967  -4.5942  -4.1643
    -4.0662  -4.0638  -4.0612  -3.6518  -3.6506  -3.6485  -3.6469  -3.6437
    -3.6379  -3.4575  -3.4526  -3.4521  -2.9636  -2.9600  -2.9578  -2.5926
    -2.5886  -2.5856  -2.4256  -2.4250  -2.4223  -2.4207  -2.4180  -2.4111
    -0.8856  -0.8835  -0.8809  -0.8780  -0.8769  -0.8680  -0.7853  -0.7823
    -0.7763  -0.6673  -0.6669  -0.6574  -0.5777  -0.5713  -0.5663   0.1299
     0.2016   0.2046   0.2071   0.2103   0.2120   0.2199   1.0834   1.0864
     1.0936   1.4147   1.4166   1.4235   2.0237   2.0268   2.0285   2.0291
     2.0323   2.0332   2.0853   2.0861   2.0905   2.6399   2.6413   2.6448
     2.7353   2.7368   2.7419   2.7436   2.7453   2.7469   2.7912   2.7941
     2.7985   3.1030   3.1047   3.1066   3.1078   3.1090   3.1154   3.3669
     3.3718   3.3722   3.3826   3.3831   3.3898   3.7338   3.7358   3.7394
     3.7571   3.7598   3.7628   3.8350   3.8383   3.8417   4.1123   4.1135
     4.1146   4.1170   4.1205   4.1240   4.1485   4.1523   4.1566   4.4171
     4.4648   4.4701   4.4711   4.7086   4.7129   4.7156   4.7791   4.7832
     4.7891   4.9300   4.9402   5.2358   5.2412   5.2454   5.7160   5.7272
     6.9316   6.9360   6.9360   7.3721   7.3749   7.3809   7.5972   7.8562
     7.8595   7.8649   7.9906   7.9916   7.9970   8.1482   8.1503   8.1542
     8.1653   8.1697   8.1703   8.3973   8.4006   8.4028   8.4049   8.4069
     8.4123   8.4460

          k =-0.2500 0.2500-0.2500 ( 52563 PWs)   bands (ev):

    -5.6251  -5.0997  -5.0972  -5.0917  -4.6004  -4.5977  -4.5924  -4.1642
    -4.0674  -4.0646  -4.0592  -3.6524  -3.6509  -3.6481  -3.6473  -3.6430
    -3.6378  -3.4575  -3.4526  -3.4521  -2.9654  -2.9603  -2.9556  -2.5925
    -2.5886  -2.5856  -2.4258  -2.4250  -2.4223  -2.4211  -2.4176  -2.4110
    -0.8856  -0.8842  -0.8800  -0.8785  -0.8766  -0.8678  -0.7853  -0.7821
    -0.7765  -0.6674  -0.6669  -0.6574  -0.5771  -0.5751  -0.5630   0.1300
     0.2012   0.2034   0.2087   0.2103   0.2121   0.2199   1.0837   1.0854
     1.0942   1.4148   1.4162   1.4239   2.0238   2.0263   2.0285   2.0298
     2.0326   2.0333   2.0841   2.0856   2.0915   2.6400   2.6413   2.6449
     2.7356   2.7373   2.7418   2.7441   2.7457   2.7468   2.7903   2.7926
     2.7994   3.1028   3.1041   3.1072   3.1079   3.1092   3.1154   3.3668
     3.3717   3.3722   3.3822   3.3832   3.3901   3.7341   3.7348   3.7401
     3.7571   3.7598   3.7629   3.8343   3.8393   3.8418   4.1123   4.1134
     4.1145   4.1172   4.1205   4.1237   4.1474   4.1533   4.1565   4.4171
     4.4649   4.4704   4.4709   4.7079   4.7140   4.7154   4.7794   4.7809
     4.7912   4.9298   4.9401   5.2344   5.2428   5.2452   5.7160   5.7272
     6.9316   6.9360   6.9360   7.3702   7.3770   7.3807   7.5972   7.8548
     7.8608   7.8648   7.9907   7.9917   7.9969   8.1459   8.1526   8.1536
     8.1657   8.1696   8.1707   8.3980   8.4015   8.4028   8.4039   8.4064
     8.4122   8.4461

          k = 0.2500-0.2500-0.2500 ( 52563 PWs)   bands (ev):

    -5.6250  -5.0991  -5.0965  -5.0938  -4.5994  -4.5967  -4.5940  -4.1621
    -4.0657  -4.0630  -4.0604  -3.6565  -3.6506  -3.6470  -3.6455  -3.6434
    -3.6421  -3.4574  -3.4567  -3.4523  -2.9594  -2.9572  -2.9536  -2.5930
    -2.5903  -2.5856  -2.4301  -2.4234  -2.4210  -2.4194  -2.4166  -2.4158
    -0.8893  -0.8798  -0.8781  -0.8756  -0.8731  -0.8712  -0.7841  -0.7788
    -0.7758  -0.6670  -0.6573  -0.6568  -0.5854  -0.5809  -0.5748   0.1225
     0.2016   0.2095   0.2110   0.2143   0.2171   0.2202   1.0771   1.0844
     1.0873   1.4131   1.4202   1.4218   2.0247   2.0261   2.0291   2.0300
     2.0313   2.0339   2.0866   2.0908   2.0914   2.6352   2.6390   2.6401
     2.7395   2.7412   2.7430   2.7446   2.7475   2.7497   2.7943   2.7997
     2.8033   3.0994   3.1062   3.1074   3.1086   3.1106   3.1124   3.3714
     3.3720   3.3749   3.3821   3.3896   3.3911   3.7286   3.7335   3.7354
     3.7514   3.7529   3.7562   3.8375   3.8407   3.8438   4.1049   4.1075
     4.1113   4.1140   4.1150   4.1163   4.1517   4.1550   4.1586   4.4090
     4.4712   4.4719   4.4768   4.7127   4.7163   4.7201   4.7697   4.7746
     4.7782   4.9325   4.9425   5.2419   5.2458   5.2513   5.7207   5.7321
     6.9364   6.9364   6.9409   7.3726   7.3786   7.3813   7.6002   7.8589
     7.8640   7.8676   7.9864   7.9917   7.9926   8.1492   8.1519   8.1546
     8.1674   8.1686   8.1735   8.3922   8.3980   8.4002   8.4022   8.4043
     8.4063   8.4507

     the Fermi energy is     6.3278 ev

!    total energy              =   -2990.53155505 Ry
     Harris-Foulkes estimate   =   -2990.53155505 Ry
     estimated scf accuracy    <          6.1E-10 Ry

     total all-electron energy =    -37124.667108 Ry

     The total energy is the sum of the following terms:

     one-electron contribution =     178.60655734 Ry
     hartree contribution      =      35.70142953 Ry
     xc contribution           =    -391.44199637 Ry
     ewald contribution        =    -534.00623987 Ry
     one-center paw contrib.   =   -2279.39130567 Ry
     smearing contrib. (-TS)   =       0.00000000 Ry

     convergence has been achieved in  13 iterations

     Forces acting on atoms (Ry/au):

     atom    1 type  1   force =    -0.01584866    0.00000836   -0.00007592
     atom    2 type  1   force =     0.00006596    0.00000971    0.00007722
     atom    3 type  1   force =     0.00029225    0.00011447    0.00023342
     atom    4 type  1   force =     0.00022509    0.00010987   -0.00022704
     atom    5 type  1   force =     0.00009679   -0.00001013    0.00007621
     atom    6 type  1   force =     0.00003648   -0.00000921   -0.00007719
     atom    7 type  1   force =    -0.00023765   -0.00011323   -0.00023249
     atom    8 type  1   force =     0.00025676   -0.00010967    0.00022696
     atom    9 type  1   force =    -0.00029129    0.00034686    0.00022816
     atom   10 type  1   force =     0.00023230   -0.00021781    0.00011846
     atom   11 type  1   force =    -0.00028636   -0.00012342   -0.00022395
     atom   12 type  1   force =     0.00023305    0.00023660   -0.00012005
     atom   13 type  1   force =    -0.00048192   -0.00018605    0.00011923
     atom   14 type  1   force =     0.00004410    0.00006753    0.00001980
     atom   15 type  1   force =    -0.00048583   -0.00003767   -0.00012361
     atom   16 type  1   force =     0.00004306   -0.00008668   -0.00001830
     atom   17 type  1   force =     0.00028588   -0.00011027    0.00022687
     atom   18 type  1   force =     0.00023142   -0.00011388   -0.00023347
     atom   19 type  1   force =    -0.01584769   -0.00000983   -0.00007792
     atom   20 type  1   force =     0.00006541   -0.00000918    0.00007626
     atom   21 type  1   force =    -0.00024371    0.00010993   -0.00022740
     atom   22 type  1   force =     0.00026285    0.00011405    0.00023329
     atom   23 type  1   force =     0.00009717    0.00000979    0.00007741
     atom   24 type  1   force =     0.00003586    0.00000979   -0.00007595
     atom   25 type  1   force =    -0.00029641    0.00011389   -0.00022357
     atom   26 type  1   force =     0.00023746   -0.00024222   -0.00012313
     atom   27 type  1   force =    -0.00029225   -0.00033756    0.00021917
     atom   28 type  1   force =     0.00023905    0.00022295    0.00012408
     atom   29 type  1   force =    -0.00048122    0.00003292   -0.00011891
     atom   30 type  1   force =     0.00004364    0.00008628   -0.00001944
     atom   31 type  1   force =    -0.00048601    0.00019053    0.00012342
     atom   32 type  1   force =     0.00004318   -0.00006734    0.00001857
     atom   33 type  1   force =     0.00379105   -0.00244996    0.00251292
     atom   34 type  1   force =     0.00024307   -0.00000942    0.00006539
     atom   35 type  1   force =    -0.00003224   -0.00001104    0.00007596
     atom   36 type  1   force =    -0.00003249    0.00002273    0.00006737
     atom   37 type  1   force =    -0.00003168   -0.00002651    0.00006441
     atom   38 type  1   force =    -0.00003290    0.00000990    0.00007704
     atom   39 type  1   force =     0.00024031    0.00001048    0.00006627
     atom   40 type  1   force =     0.00390765    0.00267427    0.00273610
     atom   41 type  1   force =    -0.00007034   -0.00000084   -0.00009014
     atom   42 type  1   force =     0.00395654   -0.00267823   -0.00273377
     atom   43 type  1   force =     0.00383869    0.00245689   -0.00250882
     atom   44 type  1   force =    -0.00007319   -0.00000068   -0.00008789
     atom   45 type  1   force =     0.00027945    0.00000086   -0.00005230
     atom   46 type  1   force =    -0.00008245   -0.00001919   -0.00006924
     atom   47 type  1   force =    -0.00007976    0.00002030   -0.00006832
     atom   48 type  1   force =     0.00028397    0.00000081   -0.00005486
     atom   49 type  1   force =     0.00387036    0.00266888    0.00275600
     atom   50 type  1   force =     0.00001610    0.00001146    0.00006697
     atom   51 type  1   force =     0.00375058   -0.00244308    0.00253220
     atom   52 type  1   force =     0.00001453   -0.00001309    0.00006430
     atom   53 type  1   force =     0.00019172    0.00002279    0.00006619
     atom   54 type  1   force =     0.00000548   -0.00000403    0.00005593
     atom   55 type  1   force =     0.00019628   -0.00002420    0.00006546
     atom   56 type  1   force =     0.00000761    0.00000204    0.00005821
     atom   57 type  1   force =    -0.00011973    0.00001274   -0.00008770
     atom   58 type  1   force =     0.00005513    0.00000408   -0.00005377
     atom   59 type  1   force =     0.00418102   -0.00267733   -0.00273291
     atom   60 type  1   force =    -0.00003311   -0.00000776   -0.00006961
     atom   61 type  1   force =     0.00406745    0.00245347   -0.00250972
     atom   62 type  1   force =    -0.00003340    0.00000691   -0.00006846
     atom   63 type  1   force =    -0.00011960   -0.00001254   -0.00008977
     atom   64 type  1   force =     0.00005514   -0.00000011   -0.00005363

     Total force =     0.027156     Total SCF correction =     0.000050

     Writing output data file pwscf.save
 
     init_run     :     10.82s CPU     16.08s WALL (       1 calls)
     electrons    :    317.22s CPU    337.64s WALL (       1 calls)
     forces       :      4.96s CPU      5.11s WALL (       1 calls)

     Called by init_run:
     wfcinit      :     10.12s CPU     15.26s WALL (       1 calls)
     potinit      :      0.26s CPU      0.27s WALL (       1 calls)

     Called by electrons:
     c_bands      :    279.01s CPU    298.22s WALL (      14 calls)
     sum_band     :     32.68s CPU     33.14s WALL (      14 calls)
     v_of_rho     :      0.98s CPU      0.97s WALL (      14 calls)
     newd         :      1.80s CPU      1.89s WALL (      14 calls)
     PAW_pot      :      2.36s CPU      2.38s WALL (      14 calls)
     mix_rho      :      0.58s CPU      0.59s WALL (      14 calls)

     Called by c_bands:
     init_us_2    :      5.30s CPU      5.35s WALL (     120 calls)
     cegterg      :    271.24s CPU    279.13s WALL (      56 calls)

     Called by sum_band:
     sum_band:bec :      0.05s CPU      0.05s WALL (      56 calls)
     addusdens    :      1.85s CPU      2.10s WALL (      14 calls)

     Called by *egterg:
     h_psi        :    126.68s CPU    127.21s WALL (     251 calls)
     s_psi        :     31.75s CPU     31.81s WALL (     251 calls)
     g_psi        :      1.23s CPU      1.23s WALL (     191 calls)
     cdiaghg      :     37.57s CPU     37.63s WALL (     243 calls)

     Called by h_psi:
     add_vuspsi   :     32.78s CPU     32.86s WALL (     251 calls)

     General routines
     calbec       :     49.99s CPU     50.26s WALL (     323 calls)
     fft          :      0.44s CPU      0.45s WALL (     195 calls)
     fftw         :     65.04s CPU     65.51s WALL (   57068 calls)
     davcio       :      0.00s CPU      0.02s WALL (       4 calls)
 
     Parallel routines
     fft_scatter  :     24.47s CPU     23.75s WALL (   57263 calls)
 
     PWSCF        :  5m33.32s CPU     6m52.32s WALL

 
   This run was terminated on:  13:45:50   3Feb2016            

=------------------------------------------------------------------------------=
   JOB DONE.
=------------------------------------------------------------------------------=
