<?xml version="1.0" encoding="ISO-8859-1"?>
<modeling>
 <generator>
  <i name="program" type="string">vasp </i>
  <i name="version" type="string">5.4.1  </i>
  <i name="subversion" type="string">05Feb16 (build Mar 26 2016 11:58:25) complex                          parallel </i>
  <i name="platform" type="string">IFC91_ompi </i>
  <i name="date" type="string">2017 03 12 </i>
  <i name="time" type="string">12:13:57 </i>
 </generator>
 <incar>
  <i type="string" name="PREC">accurate</i>
  <i type="int" name="IALGO">    38</i>
  <i type="logical" name="ADDGRID"> T  </i>
  <i type="int" name="NELMIN">     5</i>
  <i type="int" name="IBRION">    -1</i>
  <i name="EDIFF">      0.00000001</i>
  <i name="ENCUT">    300.00000000</i>
  <i type="logical" name="LREAL"> F  </i>
  <i type="int" name="ISMEAR">     0</i>
  <i name="SIGMA">      0.05000000</i>
  <i type="logical" name="LWAVE"> F  </i>
  <i type="logical" name="LCHARG"> F  </i>
  <v type="int" name="KPOINT_BSE">    -1     0     0     0</v>
 </incar>
 <kpoints>
  <generation param="Monkhorst-Pack">
   <v type="int" name="divisions">       2        2        2 </v>
   <v name="usershift">      0.00000000       0.00000000       0.00000000 </v>
   <v name="genvec1">      0.50000000       0.00000000       0.00000000 </v>
   <v name="genvec2">      0.00000000       0.50000000       0.00000000 </v>
   <v name="genvec3">      0.00000000       0.00000000       0.50000000 </v>
   <v name="shift">      0.50000000       0.50000000       0.50000000 </v>
  </generation>
  <varray name="kpointlist" >
   <v>       0.25000000       0.25000000       0.25000000 </v>
   <v>       0.25000000      -0.25000000       0.25000000 </v>
  </varray>
  <varray name="weights" >
   <v>       0.50000000 </v>
   <v>       0.50000000 </v>
  </varray>
 </kpoints>
 <parameters>
  <separator name="general" >
   <i type="string" name="SYSTEM">unknown system</i>
   <i type="logical" name="LCOMPAT"> F  </i>
  </separator>
  <separator name="electronic" >
   <i type="string" name="PREC">accura</i>
   <i name="ENMAX">    300.00000000</i>
   <i name="ENAUG">    322.06900000</i>
   <i name="EDIFF">      0.00000001</i>
   <i type="int" name="IALGO">    38</i>
   <i type="int" name="IWAVPR">    10</i>
   <i type="int" name="NBANDS">   164</i>
   <i name="NELECT">    256.00000000</i>
   <i type="int" name="TURBO">     0</i>
   <i type="int" name="IRESTART">     0</i>
   <i type="int" name="NREBOOT">     0</i>
   <i type="int" name="NMIN">     0</i>
   <i name="EREF">      0.00000000</i>
   <separator name="electronic smearing" >
    <i type="int" name="ISMEAR">     0</i>
    <i name="SIGMA">      0.05000000</i>
    <i name="KSPACING">      0.50000000</i>
    <i type="logical" name="KGAMMA"> T  </i>
   </separator>
   <separator name="electronic projectors" >
    <i type="logical" name="LREAL"> F  </i>
    <v name="ROPT">      0.00000000</v>
    <i type="int" name="LMAXPAW">  -100</i>
    <i type="int" name="LMAXMIX">     2</i>
    <i type="logical" name="NLSPLINE"> F  </i>
   </separator>
   <separator name="electronic startup" >
    <i type="int" name="ISTART">     0</i>
    <i type="int" name="ICHARG">     2</i>
    <i type="int" name="INIWAV">     1</i>
   </separator>
   <separator name="electronic spin" >
    <i type="int" name="ISPIN">     1</i>
    <i type="logical" name="LNONCOLLINEAR"> F  </i>
    <v name="MAGMOM">      1.00000000      1.00000000      1.00000000      1.00000000      1.00000000      1.00000000      1.00000000      1.00000000      1.00000000      1.00000000      1.00000000      1.00000000      1.00000000      1.00000000      1.00000000      1.00000000      1.00000000      1.00000000      1.00000000      1.00000000
      1.00000000      1.00000000      1.00000000      1.00000000      1.00000000      1.00000000      1.00000000      1.00000000      1.00000000      1.00000000      1.00000000      1.00000000      1.00000000      1.00000000      1.00000000      1.00000000      1.00000000      1.00000000      1.00000000      1.00000000
      1.00000000      1.00000000      1.00000000      1.00000000      1.00000000      1.00000000      1.00000000      1.00000000      1.00000000      1.00000000      1.00000000      1.00000000      1.00000000      1.00000000      1.00000000      1.00000000      1.00000000      1.00000000      1.00000000      1.00000000
      1.00000000      1.00000000      1.00000000      1.00000000</v>
    <i name="NUPDOWN">     -1.00000000</i>
    <i type="logical" name="LSORBIT"> F  </i>
    <v name="SAXIS">      0.00000000      0.00000000      1.00000000</v>
    <i type="logical" name="LSPIRAL"> F  </i>
    <v name="QSPIRAL">      0.00000000      0.00000000      0.00000000</v>
    <i type="logical" name="LZEROZ"> F  </i>
   </separator>
   <separator name="electronic exchange-correlation" >
    <i type="logical" name="LASPH"> F  </i>
    <i type="logical" name="LMETAGGA"> F  </i>
   </separator>
   <separator name="electronic convergence" >
    <i type="int" name="NELM">    60</i>
    <i type="int" name="NELMDL">    -5</i>
    <i type="int" name="NELMIN">     5</i>
    <i name="ENINI">    300.00000000</i>
    <separator name="electronic convergence detail" >
     <i type="logical" name="LDIAG"> T  </i>
     <i type="logical" name="LSUBROT"> F  </i>
     <i name="WEIMIN">      0.00000000</i>
     <i name="EBREAK">      0.00000000</i>
     <i name="DEPER">      0.30000000</i>
     <i type="int" name="NRMM">     4</i>
     <i name="TIME">      0.40000000</i>
    </separator>
   </separator>
   <separator name="electronic mixer" >
    <i name="AMIX">      0.40000000</i>
    <i name="BMIX">      1.00000000</i>
    <i name="AMIN">      0.10000000</i>
    <i name="AMIX_MAG">      1.60000000</i>
    <i name="BMIX_MAG">      1.00000000</i>
    <separator name="electronic mixer details" >
     <i type="int" name="IMIX">     4</i>
     <i type="logical" name="MIXFIRST"> F  </i>
     <i type="int" name="MAXMIX">   -45</i>
     <i name="WC">    100.00000000</i>
     <i type="int" name="INIMIX">     1</i>
     <i type="int" name="MIXPRE">     1</i>
     <i type="int" name="MREMOVE">     5</i>
    </separator>
   </separator>
   <separator name="electronic dipolcorrection" >
    <i type="logical" name="LDIPOL"> F  </i>
    <i type="logical" name="LMONO"> F  </i>
    <i type="int" name="IDIPOL">     0</i>
    <i name="EPSILON">      1.00000000</i>
    <v name="DIPOL">   -100.00000000   -100.00000000   -100.00000000</v>
    <i name="EFIELD">      0.00000000</i>
   </separator>
  </separator>
  <separator name="grids" >
   <i type="int" name="NGX">    64</i>
   <i type="int" name="NGY">    64</i>
   <i type="int" name="NGZ">    64</i>
   <i type="int" name="NGXF">   128</i>
   <i type="int" name="NGYF">   128</i>
   <i type="int" name="NGZF">   128</i>
   <i type="logical" name="ADDGRID"> T  </i>
  </separator>
  <separator name="ionic" >
   <i type="int" name="NSW">     0</i>
   <i type="int" name="IBRION">    -1</i>
   <i type="int" name="ISIF">     2</i>
   <i name="PSTRESS">      0.00000000</i>
   <i name="EDIFFG">      0.00000010</i>
   <i type="int" name="NFREE">     0</i>
   <i name="POTIM">      0.50000000</i>
   <i name="SMASS">     -3.00000000</i>
   <i name="SCALEE">      1.00000000</i>
  </separator>
  <separator name="ionic md" >
   <i name="TEBEG">      0.00010000</i>
   <i name="TEEND">      0.00010000</i>
   <i type="int" name="NBLOCK">     1</i>
   <i type="int" name="KBLOCK">     1</i>
   <i type="int" name="NPACO">   256</i>
   <i name="APACO">     16.00000000</i>
  </separator>
  <separator name="symmetry" >
   <i type="int" name="ISYM">     2</i>
   <i name="SYMPREC">      0.00001000</i>
  </separator>
  <separator name="dos" >
   <i type="logical" name="LORBIT"> F  </i>
   <v name="RWIGS">     -1.00000000</v>
   <i type="int" name="NEDOS">   301</i>
   <i name="EMIN">     10.00000000</i>
   <i name="EMAX">    -10.00000000</i>
   <i name="EFERMI">      0.00000000</i>
  </separator>
  <separator name="writing" >
   <i type="int" name="NWRITE">     2</i>
   <i type="logical" name="LWAVE"> F  </i>
   <i type="logical" name="LCHARG"> F  </i>
   <i type="logical" name="LPARD"> F  </i>
   <i type="logical" name="LVTOT"> F  </i>
   <i type="logical" name="LVHAR"> F  </i>
   <i type="logical" name="LELF"> F  </i>
   <i type="logical" name="LOPTICS"> F  </i>
   <v name="STM">      0.00000000      0.00000000      0.00000000      0.00000000      0.00000000      0.00000000      0.00000000</v>
  </separator>
  <separator name="performance" >
   <i type="int" name="NPAR">     4</i>
   <i type="int" name="NSIM">     4</i>
   <i type="int" name="NBLK">    -1</i>
   <i type="logical" name="LPLANE"> T  </i>
   <i type="logical" name="LSCALAPACK"> T  </i>
   <i type="logical" name="LSCAAWARE"> F  </i>
   <i type="logical" name="LSCALU"> F  </i>
   <i type="logical" name="LASYNC"> F  </i>
   <i type="logical" name="LORBITALREAL"> F  </i>
  </separator>
  <separator name="miscellaneous" >
   <i type="int" name="IDIOT">     3</i>
   <i type="logical" name="LMUSIC"> F  </i>
   <v name="POMASS">     28.08500000</v>
   <v name="DARWINR">      0.00000000</v>
   <v name="DARWINV">      1.00000000</v>
   <i type="logical" name="LCORR"> T  </i>
  </separator>
  <i type="logical" name="GGA_COMPAT"> T  </i>
  <i type="logical" name="LBERRY"> F  </i>
  <i type="int" name="ICORELEVEL">     0</i>
  <i type="logical" name="LDAU"> F  </i>
  <i type="int" name="I_CONSTRAINED_M">     0</i>
  <separator name="electronic exchange-correlation" >
   <i type="string" name="GGA">--</i>
   <i type="int" name="VOSKOWN">     0</i>
   <i type="logical" name="LHFCALC"> F  </i>
   <i type="string" name="PRECFOCK"></i>
   <i type="logical" name="LSYMGRAD"> F  </i>
   <i type="logical" name="LHFONE"> F  </i>
   <i type="logical" name="LRHFCALC"> F  </i>
   <i type="logical" name="LTHOMAS"> F  </i>
   <i type="logical" name="LMODELHF"> F  </i>
   <i name="ENCUT4O">     -1.00000000</i>
   <i type="int" name="EXXOEP">     0</i>
   <i type="int" name="FOURORBIT">     0</i>
   <i name="AEXX">      0.00000000</i>
   <i name="HFALPHA">      0.00000000</i>
   <i name="MCALPHA">      0.00000000</i>
   <i name="ALDAX">      1.00000000</i>
   <i name="AGGAX">      1.00000000</i>
   <i name="ALDAC">      1.00000000</i>
   <i name="AGGAC">      1.00000000</i>
   <i type="int" name="NKREDX">     1</i>
   <i type="int" name="NKREDY">     1</i>
   <i type="int" name="NKREDZ">     1</i>
   <i type="logical" name="SHIFTRED"> F  </i>
   <i type="logical" name="ODDONLY"> F  </i>
   <i type="logical" name="EVENONLY"> F  </i>
   <i type="int" name="LMAXFOCK">     0</i>
   <i type="int" name="NMAXFOCKAE">     0</i>
   <i type="logical" name="LFOCKAEDFT"> F  </i>
   <i name="HFSCREEN">      0.00000000</i>
   <i name="HFSCREENC">      0.00000000</i>
   <i type="int" name="NBANDSGWLOW">     0</i>
  </separator>
  <separator name="vdW DFT" >
   <i type="logical" name="LUSE_VDW"> F  </i>
   <i name="Zab_VDW">     -0.84910000</i>
   <i name="PARAM1">      0.12340000</i>
   <i name="PARAM2">      1.00000000</i>
   <i name="PARAM3">      0.00000000</i>
  </separator>
  <separator name="model GW" >
   <i type="int" name="MODEL_GW">     0</i>
   <i name="MODEL_EPS0">     12.24990743</i>
   <i name="MODEL_ALPHA">      1.00000000</i>
  </separator>
  <separator name="linear response parameters" >
   <i type="logical" name="LEPSILON"> F  </i>
   <i type="logical" name="LRPA"> F  </i>
   <i type="logical" name="LNABLA"> F  </i>
   <i type="logical" name="LVEL"> F  </i>
   <i type="int" name="KINTER">     0</i>
   <i name="CSHIFT">      0.10000000</i>
   <i name="OMEGAMAX">     -1.00000000</i>
   <i name="DEG_THRESHOLD">      0.00200000</i>
  </separator>
  <separator name="orbital magnetization" >
   <i type="logical" name="NUCIND"> F  </i>
   <v name="MAGPOS">      0.00000000      0.00000000      0.00000000</v>
   <i type="logical" name="LNICSALL"> T  </i>
   <i type="logical" name="ORBITALMAG"> F  </i>
   <i type="logical" name="LMAGBLOCH"> F  </i>
   <i type="logical" name="LCHIMAG"> F  </i>
   <i type="logical" name="LGAUGE"> T  </i>
   <i type="int" name="MAGATOM">     0</i>
   <v name="MAGDIPOL">      0.00000000      0.00000000      0.00000000</v>
   <v name="AVECCONST">      0.00000000      0.00000000      0.00000000</v>
  </separator>
  <separator name="response functions" >
   <i type="logical" name="LADDER"> F  </i>
   <i type="logical" name="LFXC"> F  </i>
   <i type="logical" name="LHARTREE"> T  </i>
   <i type="int" name="IBSE">     0</i>
   <v type="int" name="KPOINT">    -1     0     0     0</v>
   <i type="logical" name="LTCTE"> F  </i>
   <i type="logical" name="LTETE"> F  </i>
   <i type="logical" name="LTRIPLET"> F  </i>
   <i type="logical" name="LFXCEPS"> F  </i>
   <i type="logical" name="LFXHEG"> F  </i>
   <i type="int" name="NATURALO">     0</i>
   <i type="logical" name="L2ORDER"> F  </i>
   <i type="logical" name="LUSEW"> F  </i>
   <i name="ENCUTGW">     -2.00000000</i>
   <i name="ENCUTGWSOFT">     -2.00000000</i>
   <i name="ENCUTLF">     -1.00000000</i>
   <i type="int" name="LMAXMP2">    -1</i>
   <i name="SCISSOR">      0.00000000</i>
   <i type="int" name="NOMEGA">     0</i>
   <i type="int" name="NOMEGAR">     0</i>
   <i type="int" name="NBANDSGW">    -1</i>
   <i type="int" name="NBANDSO">    -1</i>
   <i type="int" name="NBANDSV">    -1</i>
   <i type="int" name="NELM">     1</i>
   <i type="int" name="NELMHF">     1</i>
   <i type="int" name="DIM">     3</i>
   <i type="int" name="ANTIRES">     0</i>
   <i name="OMEGAMAX">    -30.00000000</i>
   <i name="OMEGAMIN">    -30.00000000</i>
   <i name="OMEGATL">   -200.00000000</i>
   <i type="int" name="OMEGAGRID">     0</i>
   <i name="CSHIFT">     -0.10000000</i>
   <i type="logical" name="SELFENERGY"> F  </i>
   <i type="logical" name="LSPECTRAL"> F  </i>
   <i type="logical" name="LSPECTRALGW"> F  </i>
   <i type="logical" name="LSINGLES"> F  </i>
   <i type="logical" name="LFERMIGW"> F  </i>
   <i type="logical" name="ODDONLYGW"> F  </i>
   <i type="logical" name="EVENONLYGW"> F  </i>
   <i type="int" name="NKREDLFX">     1</i>
   <i type="int" name="NKREDLFY">     1</i>
   <i type="int" name="NKREDLFZ">     1</i>
   <i type="int" name="MAXMEM">  1800</i>
   <i type="int" name="TELESCOPE">     0</i>
   <i type="int" name="TAUPAR">     1</i>
   <i type="int" name="OMEGAPAR">    -1</i>
   <i name="LAMBDA">      1.00000000</i>
  </separator>
  <separator name="External order field" >
   <i name="OFIELD_KAPPA">      0.00000000</i>
   <v name="OFIELD_K">      0.00000000      0.00000000      0.00000000</v>
   <i name="OFIELD_Q6_NEAR">      0.00000000</i>
   <i name="OFIELD_Q6_FAR">      0.00000000</i>
   <i name="OFIELD_A">      0.00000000</i>
  </separator>
 </parameters>
 <atominfo>
  <atoms>      64 </atoms>
  <types>       1 </types>
  <array name="atoms" >
   <dimension dim="1">ion</dimension>
   <field type="string">element</field>
   <field type="int">atomtype</field>
   <set>
    <rc><c>Si</c><c>   1</c></rc>
    <rc><c>Si</c><c>   1</c></rc>
    <rc><c>Si</c><c>   1</c></rc>
    <rc><c>Si</c><c>   1</c></rc>
    <rc><c>Si</c><c>   1</c></rc>
    <rc><c>Si</c><c>   1</c></rc>
    <rc><c>Si</c><c>   1</c></rc>
    <rc><c>Si</c><c>   1</c></rc>
    <rc><c>Si</c><c>   1</c></rc>
    <rc><c>Si</c><c>   1</c></rc>
    <rc><c>Si</c><c>   1</c></rc>
    <rc><c>Si</c><c>   1</c></rc>
    <rc><c>Si</c><c>   1</c></rc>
    <rc><c>Si</c><c>   1</c></rc>
    <rc><c>Si</c><c>   1</c></rc>
    <rc><c>Si</c><c>   1</c></rc>
    <rc><c>Si</c><c>   1</c></rc>
    <rc><c>Si</c><c>   1</c></rc>
    <rc><c>Si</c><c>   1</c></rc>
    <rc><c>Si</c><c>   1</c></rc>
    <rc><c>Si</c><c>   1</c></rc>
    <rc><c>Si</c><c>   1</c></rc>
    <rc><c>Si</c><c>   1</c></rc>
    <rc><c>Si</c><c>   1</c></rc>
    <rc><c>Si</c><c>   1</c></rc>
    <rc><c>Si</c><c>   1</c></rc>
    <rc><c>Si</c><c>   1</c></rc>
    <rc><c>Si</c><c>   1</c></rc>
    <rc><c>Si</c><c>   1</c></rc>
    <rc><c>Si</c><c>   1</c></rc>
    <rc><c>Si</c><c>   1</c></rc>
    <rc><c>Si</c><c>   1</c></rc>
    <rc><c>Si</c><c>   1</c></rc>
    <rc><c>Si</c><c>   1</c></rc>
    <rc><c>Si</c><c>   1</c></rc>
    <rc><c>Si</c><c>   1</c></rc>
    <rc><c>Si</c><c>   1</c></rc>
    <rc><c>Si</c><c>   1</c></rc>
    <rc><c>Si</c><c>   1</c></rc>
    <rc><c>Si</c><c>   1</c></rc>
    <rc><c>Si</c><c>   1</c></rc>
    <rc><c>Si</c><c>   1</c></rc>
    <rc><c>Si</c><c>   1</c></rc>
    <rc><c>Si</c><c>   1</c></rc>
    <rc><c>Si</c><c>   1</c></rc>
    <rc><c>Si</c><c>   1</c></rc>
    <rc><c>Si</c><c>   1</c></rc>
    <rc><c>Si</c><c>   1</c></rc>
    <rc><c>Si</c><c>   1</c></rc>
    <rc><c>Si</c><c>   1</c></rc>
    <rc><c>Si</c><c>   1</c></rc>
    <rc><c>Si</c><c>   1</c></rc>
    <rc><c>Si</c><c>   1</c></rc>
    <rc><c>Si</c><c>   1</c></rc>
    <rc><c>Si</c><c>   1</c></rc>
    <rc><c>Si</c><c>   1</c></rc>
    <rc><c>Si</c><c>   1</c></rc>
    <rc><c>Si</c><c>   1</c></rc>
    <rc><c>Si</c><c>   1</c></rc>
    <rc><c>Si</c><c>   1</c></rc>
    <rc><c>Si</c><c>   1</c></rc>
    <rc><c>Si</c><c>   1</c></rc>
    <rc><c>Si</c><c>   1</c></rc>
    <rc><c>Si</c><c>   1</c></rc>
   </set>
  </array>
  <array name="atomtypes" >
   <dimension dim="1">type</dimension>
   <field type="int">atomspertype</field>
   <field type="string">element</field>
   <field>mass</field>
   <field>valence</field>
   <field type="string">pseudopotential</field>
   <set>
    <rc><c>  64</c><c>Si</c><c>     28.08500000</c><c>      4.00000000</c><c>  PAW_PBE Si 05Jan2001                  </c></rc>
   </set>
  </array>
 </atominfo>
 <structure name="initialpos" >
  <crystal>
   <varray name="basis" >
    <v>      10.93252578       0.00000000       0.00000000 </v>
    <v>       0.00000000      10.93252578       0.00000000 </v>
    <v>       0.00000000       0.00000000      10.93252578 </v>
   </varray>
   <i name="volume">   1306.65679237 </i>
   <varray name="rec_basis" >
    <v>       0.09147017       0.00000000       0.00000000 </v>
    <v>       0.00000000       0.09147017       0.00000000 </v>
    <v>       0.00000000       0.00000000       0.09147017 </v>
   </varray>
  </crystal>
  <varray name="positions" >
   <v>       0.44024411       0.43750000       0.43750000 </v>
   <v>       0.93750000       0.43750000       0.43750000 </v>
   <v>       0.43750000       0.93750000       0.43750000 </v>
   <v>       0.93750000       0.93750000       0.43750000 </v>
   <v>       0.43750000       0.43750000       0.93750000 </v>
   <v>       0.93750000       0.43750000       0.93750000 </v>
   <v>       0.43750000       0.93750000       0.93750000 </v>
   <v>       0.93750000       0.93750000       0.93750000 </v>
   <v>       0.43750000       0.18750000       0.18750000 </v>
   <v>       0.94024411       0.18750000       0.18750000 </v>
   <v>       0.43750000       0.68750000       0.18750000 </v>
   <v>       0.93750000       0.68750000       0.18750000 </v>
   <v>       0.43750000       0.18750000       0.68750000 </v>
   <v>       0.93750000       0.18750000       0.68750000 </v>
   <v>       0.43750000       0.68750000       0.68750000 </v>
   <v>       0.93750000       0.68750000       0.68750000 </v>
   <v>       0.18750000       0.43750000       0.18750000 </v>
   <v>       0.68750000       0.43750000       0.18750000 </v>
   <v>       0.18750000       0.93750000       0.18750000 </v>
   <v>       0.68750000       0.93750000       0.18750000 </v>
   <v>       0.18750000       0.43750000       0.68750000 </v>
   <v>       0.68750000       0.43750000       0.68750000 </v>
   <v>       0.18750000       0.93750000       0.68750000 </v>
   <v>       0.68750000       0.93750000       0.68750000 </v>
   <v>       0.18750000       0.18750000       0.43750000 </v>
   <v>       0.68750000       0.18750000       0.43750000 </v>
   <v>       0.18750000       0.68750000       0.43750000 </v>
   <v>       0.68750000       0.68750000       0.43750000 </v>
   <v>       0.18750000       0.18750000       0.93750000 </v>
   <v>       0.68750000       0.18750000       0.93750000 </v>
   <v>       0.18750000       0.68750000       0.93750000 </v>
   <v>       0.68750000       0.68750000       0.93750000 </v>
   <v>       0.06250000       0.06250000       0.06250000 </v>
   <v>       0.56250000       0.06250000       0.06250000 </v>
   <v>       0.06250000       0.56250000       0.06250000 </v>
   <v>       0.56250000       0.56250000       0.06250000 </v>
   <v>       0.06250000       0.06250000       0.56250000 </v>
   <v>       0.56250000       0.06250000       0.56250000 </v>
   <v>       0.06250000       0.56250000       0.56250000 </v>
   <v>       0.56250000       0.56250000       0.56250000 </v>
   <v>       0.06250000       0.31250000       0.31250000 </v>
   <v>       0.56250000       0.31250000       0.31250000 </v>
   <v>       0.06250000       0.81250000       0.31250000 </v>
   <v>       0.56250000       0.81250000       0.31250000 </v>
   <v>       0.06250000       0.31250000       0.81250000 </v>
   <v>       0.56250000       0.31250000       0.81250000 </v>
   <v>       0.06250000       0.81250000       0.81250000 </v>
   <v>       0.56250000       0.81250000       0.81250000 </v>
   <v>       0.31250000       0.06250000       0.31250000 </v>
   <v>       0.81250000       0.06250000       0.31250000 </v>
   <v>       0.31250000       0.56250000       0.31250000 </v>
   <v>       0.81250000       0.56250000       0.31250000 </v>
   <v>       0.31250000       0.06250000       0.81250000 </v>
   <v>       0.81250000       0.06250000       0.81250000 </v>
   <v>       0.31250000       0.56250000       0.81250000 </v>
   <v>       0.81250000       0.56250000       0.81250000 </v>
   <v>       0.31250000       0.31250000       0.06250000 </v>
   <v>       0.81250000       0.31250000       0.06250000 </v>
   <v>       0.31250000       0.81250000       0.06250000 </v>
   <v>       0.81250000       0.81250000       0.06250000 </v>
   <v>       0.31250000       0.31250000       0.56250000 </v>
   <v>       0.81250000       0.31250000       0.56250000 </v>
   <v>       0.31250000       0.81250000       0.56250000 </v>
   <v>       0.81250000       0.81250000       0.56250000 </v>
  </varray>
 </structure>
 <calculation>
  <scstep>
   <time name="dav">    2.75    2.75</time>
   <time name="total">    3.01    3.02</time>
   <energy>
    <i name="alphaZ">    105.52440745 </i>
    <i name="ewald">  -7265.47306506 </i>
    <i name="hartreedc">   -361.71058272 </i>
    <i name="XCdc">   -597.75714188 </i>
    <i name="pawpsdc">   5639.92317535 </i>
    <i name="pawaedc">  -4513.95313856 </i>
    <i name="eentropy">     -0.00670428 </i>
    <i name="bandstr">    861.08879841 </i>
    <i name="atom">   6596.14994790 </i>
    <i name="e_fr_energy">    463.78569662 </i>
    <i name="e_wo_entrp">    463.79240091 </i>
    <i name="e_0_energy">    463.78904876 </i>
   </energy>
  </scstep>
  <scstep>
   <time name="dav">    3.13    3.14</time>
   <time name="total">    3.13    3.23</time>
   <energy>
    <i name="e_fr_energy">   -298.07303472 </i>
    <i name="e_wo_entrp">   -298.07303472 </i>
    <i name="e_0_energy">   -298.07303472 </i>
   </energy>
  </scstep>
  <scstep>
   <time name="dav">    3.20    3.21</time>
   <time name="total">    3.20    3.22</time>
   <energy>
    <i name="e_fr_energy">   -350.93433432 </i>
    <i name="e_wo_entrp">   -350.93433432 </i>
    <i name="e_0_energy">   -350.93433432 </i>
   </energy>
  </scstep>
  <scstep>
   <time name="dav">    3.18    3.19</time>
   <time name="total">    3.18    3.19</time>
   <energy>
    <i name="e_fr_energy">   -352.26655321 </i>
    <i name="e_wo_entrp">   -352.26655321 </i>
    <i name="e_0_energy">   -352.26655321 </i>
   </energy>
  </scstep>
  <scstep>
   <time name="dav">    3.17    3.18</time>
   <time name="total">    3.44    3.45</time>
   <energy>
    <i name="e_fr_energy">   -352.31289955 </i>
    <i name="e_wo_entrp">   -352.31289955 </i>
    <i name="e_0_energy">   -352.31289955 </i>
   </energy>
  </scstep>
  <scstep>
   <time name="dav">    3.09    3.10</time>
   <time name="total">    3.62    3.63</time>
   <energy>
    <i name="e_fr_energy">   -348.58477115 </i>
    <i name="e_wo_entrp">   -348.58477115 </i>
    <i name="e_0_energy">   -348.58477115 </i>
   </energy>
  </scstep>
  <scstep>
   <time name="dav">    3.04    3.05</time>
   <time name="total">    3.57    3.58</time>
   <energy>
    <i name="e_fr_energy">   -346.87202546 </i>
    <i name="e_wo_entrp">   -346.87202546 </i>
    <i name="e_0_energy">   -346.87202546 </i>
   </energy>
  </scstep>
  <scstep>
   <time name="dav">    3.11    3.12</time>
   <time name="total">    3.64    3.65</time>
   <energy>
    <i name="e_fr_energy">   -346.89817495 </i>
    <i name="e_wo_entrp">   -346.89817495 </i>
    <i name="e_0_energy">   -346.89817495 </i>
   </energy>
  </scstep>
  <scstep>
   <time name="dav">    3.26    3.26</time>
   <time name="total">    3.79    3.80</time>
   <energy>
    <i name="e_fr_energy">   -346.90487486 </i>
    <i name="e_wo_entrp">   -346.90487486 </i>
    <i name="e_0_energy">   -346.90487486 </i>
   </energy>
  </scstep>
  <scstep>
   <time name="dav">    3.01    3.01</time>
   <time name="total">    3.54    3.55</time>
   <energy>
    <i name="e_fr_energy">   -346.90692052 </i>
    <i name="e_wo_entrp">   -346.90692052 </i>
    <i name="e_0_energy">   -346.90692052 </i>
   </energy>
  </scstep>
  <scstep>
   <time name="dav">    3.17    3.17</time>
   <time name="total">    3.70    3.71</time>
   <energy>
    <i name="e_fr_energy">   -346.90689668 </i>
    <i name="e_wo_entrp">   -346.90689668 </i>
    <i name="e_0_energy">   -346.90689668 </i>
   </energy>
  </scstep>
  <scstep>
   <time name="dav">    3.14    3.14</time>
   <time name="total">    3.67    3.68</time>
   <energy>
    <i name="e_fr_energy">   -346.90691170 </i>
    <i name="e_wo_entrp">   -346.90691170 </i>
    <i name="e_0_energy">   -346.90691170 </i>
   </energy>
  </scstep>
  <scstep>
   <time name="dav">    3.09    3.10</time>
   <time name="total">    3.63    3.67</time>
   <energy>
    <i name="e_fr_energy">   -346.90691200 </i>
    <i name="e_wo_entrp">   -346.90691200 </i>
    <i name="e_0_energy">   -346.90691200 </i>
   </energy>
  </scstep>
  <scstep>
   <time name="dav">    3.19    3.19</time>
   <time name="total">    3.72    3.74</time>
   <energy>
    <i name="e_fr_energy">   -346.90691255 </i>
    <i name="e_wo_entrp">   -346.90691255 </i>
    <i name="e_0_energy">   -346.90691255 </i>
   </energy>
  </scstep>
  <scstep>
   <time name="dav">    2.66    2.66</time>
   <time name="total">    3.20    3.20</time>
   <energy>
    <i name="e_fr_energy">   -346.90691231 </i>
    <i name="e_wo_entrp">   -346.90691231 </i>
    <i name="e_0_energy">   -346.90691231 </i>
   </energy>
  </scstep>
  <scstep>
   <time name="dav">    2.15    2.15</time>
   <time name="total">    2.68    2.69</time>
   <energy>
    <i name="e_fr_energy">   -346.90691237 </i>
    <i name="e_wo_entrp">   -346.90691237 </i>
    <i name="e_0_energy">   -346.90691237 </i>
   </energy>
  </scstep>
  <scstep>
   <time name="dav">    2.13    2.13</time>
   <time name="total">    2.39    2.40</time>
   <energy>
    <i name="alphaZ">    105.52440745 </i>
    <i name="ewald">  -7265.47306506 </i>
    <i name="hartreedc">   -485.14134232 </i>
    <i name="XCdc">   -577.61230583 </i>
    <i name="pawpsdc">  27883.39983703 </i>
    <i name="pawaedc"> -26764.11774944 </i>
    <i name="eentropy">      0.00000000 </i>
    <i name="bandstr">    160.36335790 </i>
    <i name="atom">   6596.14994790 </i>
    <i name="e_fr_energy">   -346.90691236 </i>
    <i name="e_wo_entrp">   -346.90691236 </i>
    <i name="e_0_energy">   -346.90691236 </i>
   </energy>
  </scstep>
  <structure>
   <crystal>
    <varray name="basis" >
     <v>      10.93252578       0.00000000       0.00000000 </v>
     <v>       0.00000000      10.93252578       0.00000000 </v>
     <v>       0.00000000       0.00000000      10.93252578 </v>
    </varray>
    <i name="volume">   1306.65679237 </i>
    <varray name="rec_basis" >
     <v>       0.09147017       0.00000000       0.00000000 </v>
     <v>       0.00000000       0.09147017       0.00000000 </v>
     <v>       0.00000000       0.00000000       0.09147017 </v>
    </varray>
   </crystal>
   <varray name="positions" >
    <v>       0.44024411       0.43750000       0.43750000 </v>
    <v>       0.93750000       0.43750000       0.43750000 </v>
    <v>       0.43750000       0.93750000       0.43750000 </v>
    <v>       0.93750000       0.93750000       0.43750000 </v>
    <v>       0.43750000       0.43750000       0.93750000 </v>
    <v>       0.93750000       0.43750000       0.93750000 </v>
    <v>       0.43750000       0.93750000       0.93750000 </v>
    <v>       0.93750000       0.93750000       0.93750000 </v>
    <v>       0.43750000       0.18750000       0.18750000 </v>
    <v>       0.94024411       0.18750000       0.18750000 </v>
    <v>       0.43750000       0.68750000       0.18750000 </v>
    <v>       0.93750000       0.68750000       0.18750000 </v>
    <v>       0.43750000       0.18750000       0.68750000 </v>
    <v>       0.93750000       0.18750000       0.68750000 </v>
    <v>       0.43750000       0.68750000       0.68750000 </v>
    <v>       0.93750000       0.68750000       0.68750000 </v>
    <v>       0.18750000       0.43750000       0.18750000 </v>
    <v>       0.68750000       0.43750000       0.18750000 </v>
    <v>       0.18750000       0.93750000       0.18750000 </v>
    <v>       0.68750000       0.93750000       0.18750000 </v>
    <v>       0.18750000       0.43750000       0.68750000 </v>
    <v>       0.68750000       0.43750000       0.68750000 </v>
    <v>       0.18750000       0.93750000       0.68750000 </v>
    <v>       0.68750000       0.93750000       0.68750000 </v>
    <v>       0.18750000       0.18750000       0.43750000 </v>
    <v>       0.68750000       0.18750000       0.43750000 </v>
    <v>       0.18750000       0.68750000       0.43750000 </v>
    <v>       0.68750000       0.68750000       0.43750000 </v>
    <v>       0.18750000       0.18750000       0.93750000 </v>
    <v>       0.68750000       0.18750000       0.93750000 </v>
    <v>       0.18750000       0.68750000       0.93750000 </v>
    <v>       0.68750000       0.68750000       0.93750000 </v>
    <v>       0.06250000       0.06250000       0.06250000 </v>
    <v>       0.56250000       0.06250000       0.06250000 </v>
    <v>       0.06250000       0.56250000       0.06250000 </v>
    <v>       0.56250000       0.56250000       0.06250000 </v>
    <v>       0.06250000       0.06250000       0.56250000 </v>
    <v>       0.56250000       0.06250000       0.56250000 </v>
    <v>       0.06250000       0.56250000       0.56250000 </v>
    <v>       0.56250000       0.56250000       0.56250000 </v>
    <v>       0.06250000       0.31250000       0.31250000 </v>
    <v>       0.56250000       0.31250000       0.31250000 </v>
    <v>       0.06250000       0.81250000       0.31250000 </v>
    <v>       0.56250000       0.81250000       0.31250000 </v>
    <v>       0.06250000       0.31250000       0.81250000 </v>
    <v>       0.56250000       0.31250000       0.81250000 </v>
    <v>       0.06250000       0.81250000       0.81250000 </v>
    <v>       0.56250000       0.81250000       0.81250000 </v>
    <v>       0.31250000       0.06250000       0.31250000 </v>
    <v>       0.81250000       0.06250000       0.31250000 </v>
    <v>       0.31250000       0.56250000       0.31250000 </v>
    <v>       0.81250000       0.56250000       0.31250000 </v>
    <v>       0.31250000       0.06250000       0.81250000 </v>
    <v>       0.81250000       0.06250000       0.81250000 </v>
    <v>       0.31250000       0.56250000       0.81250000 </v>
    <v>       0.81250000       0.56250000       0.81250000 </v>
    <v>       0.31250000       0.31250000       0.06250000 </v>
    <v>       0.81250000       0.31250000       0.06250000 </v>
    <v>       0.31250000       0.81250000       0.06250000 </v>
    <v>       0.81250000       0.81250000       0.06250000 </v>
    <v>       0.31250000       0.31250000       0.56250000 </v>
    <v>       0.81250000       0.31250000       0.56250000 </v>
    <v>       0.31250000       0.81250000       0.56250000 </v>
    <v>       0.81250000       0.81250000       0.56250000 </v>
   </varray>
  </structure>
  <varray name="forces" >
   <v>      -0.38718487      -0.00022307      -0.00022307 </v>
   <v>      -0.01233094      -0.00277234      -0.00277234 </v>
   <v>       0.00131622      -0.00023325       0.00023286 </v>
   <v>      -0.01294795      -0.00267050       0.00266795 </v>
   <v>       0.00131622       0.00023286      -0.00023325 </v>
   <v>      -0.01294795       0.00266795      -0.00267050 </v>
   <v>      -0.01157596       0.00022486       0.00022486 </v>
   <v>      -0.01230103       0.00277133       0.00277133 </v>
   <v>      -0.01233094       0.00277234       0.00277234 </v>
   <v>      -0.38718487       0.00022307       0.00022307 </v>
   <v>      -0.01294795       0.00267050      -0.00266795 </v>
   <v>       0.00131622       0.00023325      -0.00023286 </v>
   <v>      -0.01294795      -0.00266795       0.00267050 </v>
   <v>       0.00131622      -0.00023286       0.00023325 </v>
   <v>      -0.01230103      -0.00277133      -0.00277133 </v>
   <v>      -0.01157596      -0.00022486      -0.00022486 </v>
   <v>       0.01144194       0.00300866       0.00833172 </v>
   <v>       0.01144194      -0.00833172      -0.00300866 </v>
   <v>       0.00682043      -0.00591973      -0.00463049 </v>
   <v>       0.00666612       0.00532965      -0.00082514 </v>
   <v>       0.00666612       0.00082514      -0.00532965 </v>
   <v>       0.00682043       0.00463049       0.00591973 </v>
   <v>       0.00203852       0.00207752       0.00163259 </v>
   <v>       0.00203852      -0.00163259      -0.00207752 </v>
   <v>       0.01144194       0.00833172       0.00300866 </v>
   <v>       0.01144194      -0.00300866      -0.00833172 </v>
   <v>       0.00666612      -0.00532965       0.00082514 </v>
   <v>       0.00682043       0.00591973       0.00463049 </v>
   <v>       0.00682043      -0.00463049      -0.00591973 </v>
   <v>       0.00666612      -0.00082514       0.00532965 </v>
   <v>       0.00203852       0.00163259       0.00207752 </v>
   <v>       0.00203852      -0.00207752      -0.00163259 </v>
   <v>       0.09526953      -0.06535417      -0.06535417 </v>
   <v>       0.00593600      -0.00022407      -0.00022407 </v>
   <v>      -0.00085666      -0.00027003      -0.00061257 </v>
   <v>      -0.00085666       0.00061257       0.00027003 </v>
   <v>      -0.00085666      -0.00061257      -0.00027003 </v>
   <v>      -0.00085666       0.00027003       0.00061257 </v>
   <v>       0.00593600       0.00022407       0.00022407 </v>
   <v>       0.09526953       0.06535417       0.06535417 </v>
   <v>       0.09553742       0.06520087       0.06520087 </v>
   <v>       0.09553742      -0.06520087      -0.06520087 </v>
   <v>      -0.00085873       0.00032451       0.00055885 </v>
   <v>      -0.00085873      -0.00032451      -0.00055885 </v>
   <v>      -0.00085873       0.00055885       0.00032451 </v>
   <v>      -0.00085873      -0.00055885      -0.00032451 </v>
   <v>       0.00567512      -0.00006942      -0.00006942 </v>
   <v>       0.00567512       0.00006942       0.00006942 </v>
   <v>      -0.00171020       0.00001224       0.00034370 </v>
   <v>       0.09374591       0.06032339      -0.06026074 </v>
   <v>       0.09374591      -0.06032339       0.06026074 </v>
   <v>      -0.00171020      -0.00001224      -0.00034370 </v>
   <v>       0.00679970       0.00003103       0.00003538 </v>
   <v>      -0.00196794       0.00050119      -0.00014420 </v>
   <v>      -0.00196794      -0.00050119       0.00014420 </v>
   <v>       0.00679970      -0.00003103      -0.00003538 </v>
   <v>      -0.00171020       0.00034370       0.00001224 </v>
   <v>       0.09374591      -0.06026074       0.06032339 </v>
   <v>       0.00679970       0.00003538       0.00003103 </v>
   <v>      -0.00196794      -0.00014420       0.00050119 </v>
   <v>       0.09374591       0.06026074      -0.06032339 </v>
   <v>      -0.00171020      -0.00034370      -0.00001224 </v>
   <v>      -0.00196794       0.00014420      -0.00050119 </v>
   <v>       0.00679970      -0.00003538      -0.00003103 </v>
  </varray>
  <varray name="stress" >
   <v>      -0.01747443       0.00000000       0.00000000 </v>
   <v>       0.00000000       0.02095139       0.66972045 </v>
   <v>       0.00000000       0.66972045       0.02095139 </v>
  </varray>
  <energy>
   <i name="e_fr_energy">   -346.90691236 </i>
   <i name="e_wo_entrp">   -346.90691236 </i>
   <i name="e_0_energy">      0.00000000 </i>
  </energy>
  <time name="totalsc">   65.04   65.79</time>
  <eigenvalues>
   <array>
    <dimension dim="1">band</dimension>
    <dimension dim="2">kpoint</dimension>
    <dimension dim="3">spin</dimension>
    <field>eigene</field>
    <field>occ</field>
    <set>
     <set comment="spin 1">
      <set comment="kpoint 1">
       <r>   -5.9931    1.0000 </r>
       <r>   -5.4689    1.0000 </r>
       <r>   -5.4632    1.0000 </r>
       <r>   -5.4625    1.0000 </r>
       <r>   -4.9696    1.0000 </r>
       <r>   -4.9638    1.0000 </r>
       <r>   -4.9631    1.0000 </r>
       <r>   -4.5312    1.0000 </r>
       <r>   -4.4360    1.0000 </r>
       <r>   -4.4308    1.0000 </r>
       <r>   -4.4295    1.0000 </r>
       <r>   -4.0256    1.0000 </r>
       <r>   -4.0181    1.0000 </r>
       <r>   -4.0158    1.0000 </r>
       <r>   -4.0146    1.0000 </r>
       <r>   -4.0146    1.0000 </r>
       <r>   -4.0127    1.0000 </r>
       <r>   -3.8308    1.0000 </r>
       <r>   -3.8225    1.0000 </r>
       <r>   -3.8216    1.0000 </r>
       <r>   -3.3305    1.0000 </r>
       <r>   -3.3264    1.0000 </r>
       <r>   -3.3228    1.0000 </r>
       <r>   -2.9637    1.0000 </r>
       <r>   -2.9585    1.0000 </r>
       <r>   -2.9564    1.0000 </r>
       <r>   -2.8017    1.0000 </r>
       <r>   -2.7915    1.0000 </r>
       <r>   -2.7903    1.0000 </r>
       <r>   -2.7888    1.0000 </r>
       <r>   -2.7880    1.0000 </r>
       <r>   -2.7864    1.0000 </r>
       <r>   -1.2610    1.0000 </r>
       <r>   -1.2495    1.0000 </r>
       <r>   -1.2482    1.0000 </r>
       <r>   -1.2462    1.0000 </r>
       <r>   -1.2432    1.0000 </r>
       <r>   -1.2424    1.0000 </r>
       <r>   -1.1519    1.0000 </r>
       <r>   -1.1514    1.0000 </r>
       <r>   -1.1476    1.0000 </r>
       <r>   -1.0369    1.0000 </r>
       <r>   -1.0310    1.0000 </r>
       <r>   -1.0249    1.0000 </r>
       <r>   -0.9586    1.0000 </r>
       <r>   -0.9490    1.0000 </r>
       <r>   -0.9447    1.0000 </r>
       <r>   -0.2481    1.0000 </r>
       <r>   -0.1686    1.0000 </r>
       <r>   -0.1606    1.0000 </r>
       <r>   -0.1600    1.0000 </r>
       <r>   -0.1577    1.0000 </r>
       <r>   -0.1538    1.0000 </r>
       <r>   -0.1515    1.0000 </r>
       <r>    0.7041    1.0000 </r>
       <r>    0.7142    1.0000 </r>
       <r>    0.7175    1.0000 </r>
       <r>    1.0419    1.0000 </r>
       <r>    1.0489    1.0000 </r>
       <r>    1.0506    1.0000 </r>
       <r>    1.6514    1.0000 </r>
       <r>    1.6555    1.0000 </r>
       <r>    1.6575    1.0000 </r>
       <r>    1.6577    1.0000 </r>
       <r>    1.6586    1.0000 </r>
       <r>    1.6613    1.0000 </r>
       <r>    1.7138    1.0000 </r>
       <r>    1.7183    1.0000 </r>
       <r>    1.7196    1.0000 </r>
       <r>    2.2643    1.0000 </r>
       <r>    2.2657    1.0000 </r>
       <r>    2.2676    1.0000 </r>
       <r>    2.3680    1.0000 </r>
       <r>    2.3690    1.0000 </r>
       <r>    2.3717    1.0000 </r>
       <r>    2.3729    1.0000 </r>
       <r>    2.3739    1.0000 </r>
       <r>    2.3764    1.0000 </r>
       <r>    2.4221    1.0000 </r>
       <r>    2.4280    1.0000 </r>
       <r>    2.4321    1.0000 </r>
       <r>    2.7262    1.0000 </r>
       <r>    2.7342    1.0000 </r>
       <r>    2.7352    1.0000 </r>
       <r>    2.7361    1.0000 </r>
       <r>    2.7369    1.0000 </r>
       <r>    2.7399    1.0000 </r>
       <r>    2.9977    1.0000 </r>
       <r>    3.0008    1.0000 </r>
       <r>    3.0023    1.0000 </r>
       <r>    3.0097    1.0000 </r>
       <r>    3.0171    1.0000 </r>
       <r>    3.0177    1.0000 </r>
       <r>    3.3548    1.0000 </r>
       <r>    3.3618    1.0000 </r>
       <r>    3.3634    1.0000 </r>
       <r>    3.3774    1.0000 </r>
       <r>    3.3820    1.0000 </r>
       <r>    3.3850    1.0000 </r>
       <r>    3.4644    1.0000 </r>
       <r>    3.4675    1.0000 </r>
       <r>    3.4712    1.0000 </r>
       <r>    3.7274    1.0000 </r>
       <r>    3.7372    1.0000 </r>
       <r>    3.7396    1.0000 </r>
       <r>    3.7415    1.0000 </r>
       <r>    3.7424    1.0000 </r>
       <r>    3.7438    1.0000 </r>
       <r>    3.7783    1.0000 </r>
       <r>    3.7816    1.0000 </r>
       <r>    3.7861    1.0000 </r>
       <r>    4.0369    1.0000 </r>
       <r>    4.0976    1.0000 </r>
       <r>    4.1001    1.0000 </r>
       <r>    4.1026    1.0000 </r>
       <r>    4.3387    1.0000 </r>
       <r>    4.3423    1.0000 </r>
       <r>    4.3474    1.0000 </r>
       <r>    4.3951    1.0000 </r>
       <r>    4.4036    1.0000 </r>
       <r>    4.4057    1.0000 </r>
       <r>    4.5593    1.0000 </r>
       <r>    4.5687    1.0000 </r>
       <r>    4.8680    1.0000 </r>
       <r>    4.8716    1.0000 </r>
       <r>    4.8786    1.0000 </r>
       <r>    5.3466    1.0000 </r>
       <r>    5.3574    1.0000 </r>
       <r>    6.5600    0.0000 </r>
       <r>    6.5672    0.0000 </r>
       <r>    6.5678    0.0000 </r>
       <r>    6.9995    0.0000 </r>
       <r>    7.0054    0.0000 </r>
       <r>    7.0106    0.0000 </r>
       <r>    7.2352    0.0000 </r>
       <r>    7.4869    0.0000 </r>
       <r>    7.4928    0.0000 </r>
       <r>    7.4970    0.0000 </r>
       <r>    7.6154    0.0000 </r>
       <r>    7.6158    0.0000 </r>
       <r>    7.6233    0.0000 </r>
       <r>    7.7772    0.0000 </r>
       <r>    7.7794    0.0000 </r>
       <r>    7.7843    0.0000 </r>
       <r>    7.7981    0.0000 </r>
       <r>    7.8032    0.0000 </r>
       <r>    7.8045    0.0000 </r>
       <r>    8.0202    0.0000 </r>
       <r>    8.0249    0.0000 </r>
       <r>    8.0297    0.0000 </r>
       <r>    8.0310    0.0000 </r>
       <r>    8.0317    0.0000 </r>
       <r>    8.0349    0.0000 </r>
       <r>    8.0839    0.0000 </r>
       <r>    8.2918    0.0000 </r>
       <r>    8.2948    0.0000 </r>
       <r>    8.2990    0.0000 </r>
       <r>    8.4914    0.0000 </r>
       <r>    8.5001    0.0000 </r>
       <r>    8.5029    0.0000 </r>
       <r>    8.5043    0.0000 </r>
       <r>    8.5128    0.0000 </r>
       <r>    8.5214    0.0000 </r>
       <r>    8.5493    0.0000 </r>
      </set>
      <set comment="kpoint 2">
       <r>   -5.9932    1.0000 </r>
       <r>   -5.4678    1.0000 </r>
       <r>   -5.4646    1.0000 </r>
       <r>   -5.4617    1.0000 </r>
       <r>   -4.9686    1.0000 </r>
       <r>   -4.9653    1.0000 </r>
       <r>   -4.9628    1.0000 </r>
       <r>   -4.5334    1.0000 </r>
       <r>   -4.4358    1.0000 </r>
       <r>   -4.4329    1.0000 </r>
       <r>   -4.4295    1.0000 </r>
       <r>   -4.0219    1.0000 </r>
       <r>   -4.0212    1.0000 </r>
       <r>   -4.0181    1.0000 </r>
       <r>   -4.0161    1.0000 </r>
       <r>   -4.0120    1.0000 </r>
       <r>   -4.0065    1.0000 </r>
       <r>   -3.8272    1.0000 </r>
       <r>   -3.8262    1.0000 </r>
       <r>   -3.8177    1.0000 </r>
       <r>   -3.3342    1.0000 </r>
       <r>   -3.3296    1.0000 </r>
       <r>   -3.3266    1.0000 </r>
       <r>   -2.9619    1.0000 </r>
       <r>   -2.9596    1.0000 </r>
       <r>   -2.9550    1.0000 </r>
       <r>   -2.7964    1.0000 </r>
       <r>   -2.7957    1.0000 </r>
       <r>   -2.7927    1.0000 </r>
       <r>   -2.7905    1.0000 </r>
       <r>   -2.7868    1.0000 </r>
       <r>   -2.7814    1.0000 </r>
       <r>   -1.2556    1.0000 </r>
       <r>   -1.2542    1.0000 </r>
       <r>   -1.2504    1.0000 </r>
       <r>   -1.2486    1.0000 </r>
       <r>   -1.2443    1.0000 </r>
       <r>   -1.2432    1.0000 </r>
       <r>   -1.1547    1.0000 </r>
       <r>   -1.1509    1.0000 </r>
       <r>   -1.1497    1.0000 </r>
       <r>   -1.0399    1.0000 </r>
       <r>   -1.0346    1.0000 </r>
       <r>   -1.0285    1.0000 </r>
       <r>   -0.9471    1.0000 </r>
       <r>   -0.9434    1.0000 </r>
       <r>   -0.9373    1.0000 </r>
       <r>   -0.2411    1.0000 </r>
       <r>   -0.1688    1.0000 </r>
       <r>   -0.1658    1.0000 </r>
       <r>   -0.1621    1.0000 </r>
       <r>   -0.1605    1.0000 </r>
       <r>   -0.1564    1.0000 </r>
       <r>   -0.1556    1.0000 </r>
       <r>    0.7138    1.0000 </r>
       <r>    0.7173    1.0000 </r>
       <r>    0.7186    1.0000 </r>
       <r>    1.0443    1.0000 </r>
       <r>    1.0447    1.0000 </r>
       <r>    1.0521    1.0000 </r>
       <r>    1.6527    1.0000 </r>
       <r>    1.6535    1.0000 </r>
       <r>    1.6572    1.0000 </r>
       <r>    1.6573    1.0000 </r>
       <r>    1.6583    1.0000 </r>
       <r>    1.6620    1.0000 </r>
       <r>    1.7126    1.0000 </r>
       <r>    1.7137    1.0000 </r>
       <r>    1.7188    1.0000 </r>
       <r>    2.2680    1.0000 </r>
       <r>    2.2696    1.0000 </r>
       <r>    2.2710    1.0000 </r>
       <r>    2.3634    1.0000 </r>
       <r>    2.3644    1.0000 </r>
       <r>    2.3696    1.0000 </r>
       <r>    2.3719    1.0000 </r>
       <r>    2.3740    1.0000 </r>
       <r>    2.3747    1.0000 </r>
       <r>    2.4201    1.0000 </r>
       <r>    2.4209    1.0000 </r>
       <r>    2.4271    1.0000 </r>
       <r>    2.7295    1.0000 </r>
       <r>    2.7327    1.0000 </r>
       <r>    2.7345    1.0000 </r>
       <r>    2.7354    1.0000 </r>
       <r>    2.7387    1.0000 </r>
       <r>    2.7397    1.0000 </r>
       <r>    2.9955    1.0000 </r>
       <r>    2.9979    1.0000 </r>
       <r>    3.0004    1.0000 </r>
       <r>    3.0100    1.0000 </r>
       <r>    3.0103    1.0000 </r>
       <r>    3.0173    1.0000 </r>
       <r>    3.3616    1.0000 </r>
       <r>    3.3642    1.0000 </r>
       <r>    3.3654    1.0000 </r>
       <r>    3.3835    1.0000 </r>
       <r>    3.3871    1.0000 </r>
       <r>    3.3918    1.0000 </r>
       <r>    3.4621    1.0000 </r>
       <r>    3.4668    1.0000 </r>
       <r>    3.4676    1.0000 </r>
       <r>    3.7395    1.0000 </r>
       <r>    3.7404    1.0000 </r>
       <r>    3.7415    1.0000 </r>
       <r>    3.7429    1.0000 </r>
       <r>    3.7445    1.0000 </r>
       <r>    3.7538    1.0000 </r>
       <r>    3.7756    1.0000 </r>
       <r>    3.7811    1.0000 </r>
       <r>    3.7823    1.0000 </r>
       <r>    4.0441    1.0000 </r>
       <r>    4.0926    1.0000 </r>
       <r>    4.0957    1.0000 </r>
       <r>    4.0991    1.0000 </r>
       <r>    4.3354    1.0000 </r>
       <r>    4.3406    1.0000 </r>
       <r>    4.3415    1.0000 </r>
       <r>    4.4064    1.0000 </r>
       <r>    4.4110    1.0000 </r>
       <r>    4.4140    1.0000 </r>
       <r>    4.5572    1.0000 </r>
       <r>    4.5666    1.0000 </r>
       <r>    4.8620    1.0000 </r>
       <r>    4.8695    1.0000 </r>
       <r>    4.8706    1.0000 </r>
       <r>    5.3421    1.0000 </r>
       <r>    5.3527    1.0000 </r>
       <r>    6.5591    0.0000 </r>
       <r>    6.5593    0.0000 </r>
       <r>    6.5670    0.0000 </r>
       <r>    7.0000    0.0000 </r>
       <r>    7.0048    0.0000 </r>
       <r>    7.0063    0.0000 </r>
       <r>    7.2323    0.0000 </r>
       <r>    7.4851    0.0000 </r>
       <r>    7.4908    0.0000 </r>
       <r>    7.4915    0.0000 </r>
       <r>    7.6155    0.0000 </r>
       <r>    7.6235    0.0000 </r>
       <r>    7.6237    0.0000 </r>
       <r>    7.7759    0.0000 </r>
       <r>    7.7799    0.0000 </r>
       <r>    7.7818    0.0000 </r>
       <r>    7.7987    0.0000 </r>
       <r>    7.7991    0.0000 </r>
       <r>    7.8042    0.0000 </r>
       <r>    8.0253    0.0000 </r>
       <r>    8.0293    0.0000 </r>
       <r>    8.0319    0.0000 </r>
       <r>    8.0346    0.0000 </r>
       <r>    8.0358    0.0000 </r>
       <r>    8.0360    0.0000 </r>
       <r>    8.0795    0.0000 </r>
       <r>    8.2916    0.0000 </r>
       <r>    8.2959    0.0000 </r>
       <r>    8.2968    0.0000 </r>
       <r>    8.4951    0.0000 </r>
       <r>    8.5003    0.0000 </r>
       <r>    8.5035    0.0000 </r>
       <r>    8.5080    0.0000 </r>
       <r>    8.5183    0.0000 </r>
       <r>    8.5345    0.0000 </r>
       <r>    8.5443    0.0000 </r>
      </set>
     </set>
    </set>
   </array>
  </eigenvalues>
  <separator name="orbital magnetization" >
   <v name="MAGDIPOLOUT">      0.00000000      0.00000000      0.00000000</v>
  </separator>
  <dos>
   <i name="efermi">      5.60051125 </i>
   <total>
    <array>
     <dimension dim="1">gridpoints</dimension>
     <dimension dim="2">spin</dimension>
     <field>energy</field>
     <field>total</field>
     <field>integrated</field>
     <set>
      <set comment="spin 1">
       <r>    -6.7203     0.0000     0.0000 </r>
       <r>    -6.6670     0.0000     0.0000 </r>
       <r>    -6.6137     0.0000     0.0000 </r>
       <r>    -6.5604     0.0000     0.0000 </r>
       <r>    -6.5071     0.0000     0.0000 </r>
       <r>    -6.4537     0.0000     0.0000 </r>
       <r>    -6.4004     0.0000     0.0000 </r>
       <r>    -6.3471     0.0000     0.0000 </r>
       <r>    -6.2938     0.0000     0.0000 </r>
       <r>    -6.2404     0.0000     0.0000 </r>
       <r>    -6.1871     0.0000     0.0000 </r>
       <r>    -6.1338     0.0013     0.0001 </r>
       <r>    -6.0805     0.2523     0.0135 </r>
       <r>    -6.0271     6.0531     0.3363 </r>
       <r>    -5.9738    20.2372     1.4154 </r>
       <r>    -5.9205    10.2155     1.9601 </r>
       <r>    -5.8672     0.7413     1.9996 </r>
       <r>    -5.8139     0.0069     2.0000 </r>
       <r>    -5.7605     0.0000     2.0000 </r>
       <r>    -5.7072     0.0000     2.0000 </r>
       <r>    -5.6539     0.0000     2.0000 </r>
       <r>    -5.6006     0.0072     2.0004 </r>
       <r>    -5.5472     1.1192     2.0601 </r>
       <r>    -5.4939    21.9932     3.2328 </r>
       <r>    -5.4406    61.5252     6.5135 </r>
       <r>    -5.3873    26.2550     7.9135 </r>
       <r>    -5.3340     1.6103     7.9993 </r>
       <r>    -5.2806     0.0126     8.0000 </r>
       <r>    -5.2273     0.0000     8.0000 </r>
       <r>    -5.1740     0.0000     8.0000 </r>
       <r>    -5.1207     0.0007     8.0000 </r>
       <r>    -5.0673     0.2295     8.0123 </r>
       <r>    -5.0140     9.4199     8.5146 </r>
       <r>    -4.9607    52.7205    11.3258 </r>
       <r>    -4.9074    44.4756    13.6973 </r>
       <r>    -4.8540     5.5830    13.9950 </r>
       <r>    -4.8007     0.0933    14.0000 </r>
       <r>    -4.7474     0.0002    14.0000 </r>
       <r>    -4.6941     0.0001    14.0000 </r>
       <r>    -4.6408     0.0406    14.0022 </r>
       <r>    -4.5874     2.1922    14.1191 </r>
       <r>    -4.5341    15.9839    14.9714 </r>
       <r>    -4.4808    26.2706    16.3722 </r>
       <r>    -4.4275    55.4712    19.3300 </r>
       <r>    -4.3741    44.4290    21.6991 </r>
       <r>    -4.3208     5.5500    21.9951 </r>
       <r>    -4.2675     0.0925    22.0000 </r>
       <r>    -4.2142     0.0002    22.0000 </r>
       <r>    -4.1609     0.0058    22.0003 </r>
       <r>    -4.1075     1.1958    22.0641 </r>
       <r>    -4.0542    31.4042    23.7386 </r>
       <r>    -4.0009   117.8244    30.0213 </r>
       <r>    -3.9476    68.6100    33.6798 </r>
       <r>    -3.8942     8.7269    34.1451 </r>
       <r>    -3.8409    33.3623    35.9241 </r>
       <r>    -3.7876    59.4340    39.0933 </r>
       <r>    -3.7343    16.3613    39.9657 </r>
       <r>    -3.6810     0.6401    39.9998 </r>
       <r>    -3.6276     0.0032    40.0000 </r>
       <r>    -3.5743     0.0000    40.0000 </r>
       <r>    -3.5210     0.0000    40.0000 </r>
       <r>    -3.4677     0.0050    40.0003 </r>
       <r>    -3.4143     0.8690    40.0466 </r>
       <r>    -3.3610    19.2641    41.0738 </r>
       <r>    -3.3077    60.8126    44.3165 </r>
       <r>    -3.2544    29.4692    45.8879 </r>
       <r>    -3.2010     2.0836    45.9990 </r>
       <r>    -3.1477     0.0191    46.0000 </r>
       <r>    -3.0944     0.0078    46.0004 </r>
       <r>    -3.0411     1.1726    46.0629 </r>
       <r>    -2.9878    22.4790    47.2616 </r>
       <r>    -2.9344    61.5499    50.5436 </r>
       <r>    -2.8811    27.0473    51.9858 </r>
       <r>    -2.8278    34.1195    53.8052 </r>
       <r>    -2.7745   118.4102    60.1191 </r>
       <r>    -2.7211    67.0430    63.6940 </r>
       <r>    -2.6678     5.6745    63.9966 </r>
       <r>    -2.6145     0.0641    64.0000 </r>
       <r>    -2.5612     0.0001    64.0000 </r>
       <r>    -2.5079     0.0000    64.0000 </r>
       <r>    -2.4545     0.0000    64.0000 </r>
       <r>    -2.4012     0.0000    64.0000 </r>
       <r>    -2.3479     0.0000    64.0000 </r>
       <r>    -2.2946     0.0000    64.0000 </r>
       <r>    -2.2412     0.0000    64.0000 </r>
       <r>    -2.1879     0.0000    64.0000 </r>
       <r>    -2.1346     0.0000    64.0000 </r>
       <r>    -2.0813     0.0000    64.0000 </r>
       <r>    -2.0280     0.0000    64.0000 </r>
       <r>    -1.9746     0.0000    64.0000 </r>
       <r>    -1.9213     0.0000    64.0000 </r>
       <r>    -1.8680     0.0000    64.0000 </r>
       <r>    -1.8147     0.0000    64.0000 </r>
       <r>    -1.7613     0.0000    64.0000 </r>
       <r>    -1.7080     0.0000    64.0000 </r>
       <r>    -1.6547     0.0000    64.0000 </r>
       <r>    -1.6014     0.0000    64.0000 </r>
       <r>    -1.5480     0.0000    64.0000 </r>
       <r>    -1.4947     0.0000    64.0000 </r>
       <r>    -1.4414     0.0000    64.0000 </r>
       <r>    -1.3881     0.0115    64.0006 </r>
       <r>    -1.3348     1.8438    64.0989 </r>
       <r>    -1.2814    39.0141    66.1793 </r>
       <r>    -1.2281   122.6712    72.7204 </r>
       <r>    -1.1748    85.4790    77.2784 </r>
       <r>    -1.1215    66.5069    80.8247 </r>
       <r>    -1.0681    39.0019    82.9044 </r>
       <r>    -1.0148    64.0540    86.3199 </r>
       <r>    -0.9615    67.1580    89.9009 </r>
       <r>    -0.9082    60.8763    93.1470 </r>
       <r>    -0.8549    15.4046    93.9684 </r>
       <r>    -0.8015     0.5890    93.9998 </r>
       <r>    -0.7482     0.0029    94.0000 </r>
       <r>    -0.6949     0.0000    94.0000 </r>
       <r>    -0.6416     0.0000    94.0000 </r>
       <r>    -0.5882     0.0000    94.0000 </r>
       <r>    -0.5349     0.0000    94.0000 </r>
       <r>    -0.4816     0.0000    94.0000 </r>
       <r>    -0.4283     0.0000    94.0000 </r>
       <r>    -0.3750     0.0046    94.0002 </r>
       <r>    -0.3216     0.5631    94.0303 </r>
       <r>    -0.2683     9.1882    94.5202 </r>
       <r>    -0.2150    34.2265    96.3453 </r>
       <r>    -0.1617   101.7703   101.7719 </r>
       <r>    -0.1083   100.1904   107.1143 </r>
       <r>    -0.0550    16.2413   107.9803 </r>
       <r>    -0.0017     0.3675   107.9999 </r>
       <r>     0.0516     0.0010   108.0000 </r>
       <r>     0.1050     0.0000   108.0000 </r>
       <r>     0.1583     0.0000   108.0000 </r>
       <r>     0.2116     0.0000   108.0000 </r>
       <r>     0.2649     0.0000   108.0000 </r>
       <r>     0.3182     0.0000   108.0000 </r>
       <r>     0.3716     0.0000   108.0000 </r>
       <r>     0.4249     0.0000   108.0000 </r>
       <r>     0.4782     0.0000   108.0000 </r>
       <r>     0.5315     0.0000   108.0000 </r>
       <r>     0.5849     0.0166   108.0009 </r>
       <r>     0.6382     1.8500   108.0995 </r>
       <r>     0.6915    27.5845   109.5704 </r>
       <r>     0.7448    61.0295   112.8247 </r>
       <r>     0.7981    20.9948   113.9442 </r>
       <r>     0.8515     1.0407   113.9996 </r>
       <r>     0.9048     0.0101   114.0002 </r>
       <r>     0.9581     0.6886   114.0369 </r>
       <r>     1.0114    17.0728   114.9473 </r>
       <r>     1.0648    59.9158   118.1421 </r>
       <r>     1.1181    32.2637   119.8625 </r>
       <r>     1.1714     2.5518   119.9986 </r>
       <r>     1.2247     0.0264   120.0000 </r>
       <r>     1.2780     0.0000   120.0000 </r>
       <r>     1.3314     0.0000   120.0000 </r>
       <r>     1.3847     0.0000   120.0000 </r>
       <r>     1.4380     0.0000   120.0000 </r>
       <r>     1.4913     0.0003   120.0000 </r>
       <r>     1.5447     0.1754   120.0094 </r>
       <r>     1.5980    10.7631   120.5833 </r>
       <r>     1.6513    91.2412   125.4485 </r>
       <r>     1.7046   144.7039   133.1645 </r>
       <r>     1.7580    76.7824   137.2587 </r>
       <r>     1.8113    13.4893   137.9780 </r>
       <r>     1.8646     0.4107   137.9999 </r>
       <r>     1.9179     0.0016   138.0000 </r>
       <r>     1.9712     0.0000   138.0000 </r>
       <r>     2.0246     0.0000   138.0000 </r>
       <r>     2.0779     0.0000   138.0000 </r>
       <r>     2.1312     0.0065   138.0003 </r>
       <r>     2.1845     1.0547   138.0566 </r>
       <r>     2.2379    21.4187   139.1987 </r>
       <r>     2.2912    64.3078   142.6277 </r>
       <r>     2.3445    77.0331   146.7354 </r>
       <r>     2.3978   148.3451   154.6455 </r>
       <r>     2.4511   109.1259   160.4644 </r>
       <r>     2.5045    27.3258   161.9215 </r>
       <r>     2.5578     1.4620   161.9994 </r>
       <r>     2.6111     0.0675   162.0030 </r>
       <r>     2.6644     5.2930   162.2852 </r>
       <r>     2.7178    65.4590   165.7757 </r>
       <r>     2.7711   119.4349   172.1443 </r>
       <r>     2.8244    33.4698   173.9290 </r>
       <r>     2.8777     1.3674   174.0019 </r>
       <r>     2.9310     4.1782   174.2247 </r>
       <r>     2.9844    56.9684   177.2624 </r>
       <r>     3.0377   120.2474   183.6743 </r>
       <r>     3.0910    41.4190   185.8829 </r>
       <r>     3.1443     2.1813   185.9992 </r>
       <r>     3.1977     0.0159   186.0000 </r>
       <r>     3.2510     0.1117   186.0060 </r>
       <r>     3.3043     7.1864   186.3892 </r>
       <r>     3.3576    69.1465   190.0762 </r>
       <r>     3.4110   120.0542   196.4778 </r>
       <r>     3.4643    80.2121   200.7550 </r>
       <r>     3.5176    52.3703   203.5475 </r>
       <r>     3.5709     8.3025   203.9902 </r>
       <r>     3.6242     0.3083   204.0066 </r>
       <r>     3.6776     8.5897   204.4647 </r>
       <r>     3.7309    87.2223   209.1156 </r>
       <r>     3.7842   163.7433   217.8468 </r>
       <r>     3.8375    70.8749   221.6260 </r>
       <r>     3.8909     6.9012   221.9940 </r>
       <r>     3.9442     0.2388   222.0067 </r>
       <r>     3.9975     4.3805   222.2403 </r>
       <r>     4.0508    28.9069   223.7817 </r>
       <r>     4.1041    66.7731   227.3422 </r>
       <r>     4.1575    44.5572   229.7181 </r>
       <r>     4.2108     5.2168   229.9963 </r>
       <r>     4.2641     1.7936   230.0920 </r>
       <r>     4.3174    27.6197   231.5647 </r>
       <r>     4.3708    78.9284   235.7734 </r>
       <r>     4.4241    81.1808   240.1021 </r>
       <r>     4.4774    33.6073   241.8942 </r>
       <r>     4.5307    15.7033   242.7315 </r>
       <r>     4.5840    40.5054   244.8914 </r>
       <r>     4.6374    19.4036   245.9260 </r>
       <r>     4.6907     1.3746   245.9993 </r>
       <r>     4.7440     0.0360   246.0012 </r>
       <r>     4.7973     2.3200   246.1249 </r>
       <r>     4.8507    30.6959   247.7617 </r>
       <r>     4.9040    60.2653   250.9752 </r>
       <r>     4.9573    18.4025   251.9565 </r>
       <r>     5.0106     0.8111   251.9998 </r>
       <r>     5.0640     0.0046   252.0000 </r>
       <r>     5.1173     0.0000   252.0000 </r>
       <r>     5.1706     0.0000   252.0000 </r>
       <r>     5.2239     0.0167   252.0009 </r>
       <r>     5.2772     1.6009   252.0863 </r>
       <r>     5.3306    20.6365   253.1866 </r>
       <r>     5.3839    40.0062   255.3199 </r>
       <r>     5.4372    12.2079   255.9708 </r>
       <r>     5.4905     0.5438   255.9998 </r>
       <r>     5.5439     0.0032   256.0000 </r>
       <r>     5.5972     0.0000   256.0000 </r>
       <r>     5.6505     0.0000   256.0000 </r>
       <r>     5.7038     0.0000   256.0000 </r>
       <r>     5.7571     0.0000   256.0000 </r>
       <r>     5.8105     0.0000   256.0000 </r>
       <r>     5.8638     0.0000   256.0000 </r>
       <r>     5.9171     0.0000   256.0000 </r>
       <r>     5.9704     0.0000   256.0000 </r>
       <r>     6.0238     0.0000   256.0000 </r>
       <r>     6.0771     0.0000   256.0000 </r>
       <r>     6.1304     0.0000   256.0000 </r>
       <r>     6.1837     0.0000   256.0000 </r>
       <r>     6.2370     0.0000   256.0000 </r>
       <r>     6.2904     0.0000   256.0000 </r>
       <r>     6.3437     0.0000   256.0000 </r>
       <r>     6.3970     0.0002   256.0000 </r>
       <r>     6.4503     0.0832   256.0044 </r>
       <r>     6.5037     5.1578   256.2795 </r>
       <r>     6.5570    42.9769   258.5711 </r>
       <r>     6.6103    53.7675   261.4381 </r>
       <r>     6.6636    10.2649   261.9855 </r>
       <r>     6.7170     0.2713   262.0000 </r>
       <r>     6.7703     0.0009   262.0000 </r>
       <r>     6.8236     0.0000   262.0000 </r>
       <r>     6.8769     0.0188   262.0010 </r>
       <r>     6.9302     2.0593   262.1108 </r>
       <r>     6.9836    29.2778   263.6720 </r>
       <r>     7.0369    60.8330   266.9158 </r>
       <r>     7.0902    19.4424   267.9525 </r>
       <r>     7.1435     1.0889   268.0105 </r>
       <r>     7.1969     5.3810   268.2975 </r>
       <r>     7.2502    19.8911   269.3581 </r>
       <r>     7.3035    11.1263   269.9514 </r>
       <r>     7.3568     0.9116   270.0000 </r>
       <r>     7.4101     1.3252   270.0707 </r>
       <r>     7.4635    23.6696   271.3328 </r>
       <r>     7.5168    61.7028   274.6229 </r>
       <r>     7.5701    33.6472   276.4171 </r>
       <r>     7.6234    53.3074   279.2596 </r>
       <r>     7.6768    45.5540   281.6886 </r>
       <r>     7.7301    17.3162   282.6120 </r>
       <r>     7.7834    83.9288   287.0873 </r>
       <r>     7.8367   105.6780   292.7223 </r>
       <r>     7.8901    23.1727   293.9579 </r>
       <r>     7.9434     2.4404   294.0881 </r>
       <r>     7.9967    37.3778   296.0812 </r>
       <r>     8.0500   127.3701   302.8729 </r>
       <r>     8.1033    81.4154   307.2141 </r>
       <r>     8.1567    14.0561   307.9636 </r>
       <r>     8.2100     1.6046   308.0492 </r>
       <r>     8.2633    19.9809   309.1146 </r>
       <r>     8.3166    61.1506   312.3753 </r>
       <r>     8.3700    28.5489   313.8977 </r>
       <r>     8.4233     4.4148   314.1331 </r>
       <r>     8.4766    43.8288   316.4701 </r>
       <r>     8.5299   128.8100   323.3386 </r>
       <r>     8.5832    76.7822   327.4328 </r>
       <r>     8.6366    10.3548   327.9850 </r>
       <r>     8.6899     0.2806   327.9999 </r>
       <r>     8.7432     0.0012   328.0000 </r>
       <r>     8.7965     0.0000   328.0000 </r>
       <r>     8.8499     0.0000   328.0000 </r>
       <r>     8.9032     0.0000   328.0000 </r>
       <r>     8.9565     0.0000   328.0000 </r>
       <r>     9.0098     0.0000   328.0000 </r>
       <r>     9.0631     0.0000   328.0000 </r>
       <r>     9.1165     0.0000   328.0000 </r>
       <r>     9.1698     0.0000   328.0000 </r>
       <r>     9.2231     0.0000   328.0000 </r>
       <r>     9.2764     0.0000   328.0000 </r>
      </set>
     </set>
    </array>
   </total>
  </dos>
 </calculation>
 <structure name="finalpos" >
  <crystal>
   <varray name="basis" >
    <v>      10.93252578       0.00000000       0.00000000 </v>
    <v>       0.00000000      10.93252578       0.00000000 </v>
    <v>       0.00000000       0.00000000      10.93252578 </v>
   </varray>
   <i name="volume">   1306.65679237 </i>
   <varray name="rec_basis" >
    <v>       0.09147017       0.00000000       0.00000000 </v>
    <v>       0.00000000       0.09147017       0.00000000 </v>
    <v>       0.00000000       0.00000000       0.09147017 </v>
   </varray>
  </crystal>
  <varray name="positions" >
   <v>       0.44024411       0.43750000       0.43750000 </v>
   <v>       0.93750000       0.43750000       0.43750000 </v>
   <v>       0.43750000       0.93750000       0.43750000 </v>
   <v>       0.93750000       0.93750000       0.43750000 </v>
   <v>       0.43750000       0.43750000       0.93750000 </v>
   <v>       0.93750000       0.43750000       0.93750000 </v>
   <v>       0.43750000       0.93750000       0.93750000 </v>
   <v>       0.93750000       0.93750000       0.93750000 </v>
   <v>       0.43750000       0.18750000       0.18750000 </v>
   <v>       0.94024411       0.18750000       0.18750000 </v>
   <v>       0.43750000       0.68750000       0.18750000 </v>
   <v>       0.93750000       0.68750000       0.18750000 </v>
   <v>       0.43750000       0.18750000       0.68750000 </v>
   <v>       0.93750000       0.18750000       0.68750000 </v>
   <v>       0.43750000       0.68750000       0.68750000 </v>
   <v>       0.93750000       0.68750000       0.68750000 </v>
   <v>       0.18750000       0.43750000       0.18750000 </v>
   <v>       0.68750000       0.43750000       0.18750000 </v>
   <v>       0.18750000       0.93750000       0.18750000 </v>
   <v>       0.68750000       0.93750000       0.18750000 </v>
   <v>       0.18750000       0.43750000       0.68750000 </v>
   <v>       0.68750000       0.43750000       0.68750000 </v>
   <v>       0.18750000       0.93750000       0.68750000 </v>
   <v>       0.68750000       0.93750000       0.68750000 </v>
   <v>       0.18750000       0.18750000       0.43750000 </v>
   <v>       0.68750000       0.18750000       0.43750000 </v>
   <v>       0.18750000       0.68750000       0.43750000 </v>
   <v>       0.68750000       0.68750000       0.43750000 </v>
   <v>       0.18750000       0.18750000       0.93750000 </v>
   <v>       0.68750000       0.18750000       0.93750000 </v>
   <v>       0.18750000       0.68750000       0.93750000 </v>
   <v>       0.68750000       0.68750000       0.93750000 </v>
   <v>       0.06250000       0.06250000       0.06250000 </v>
   <v>       0.56250000       0.06250000       0.06250000 </v>
   <v>       0.06250000       0.56250000       0.06250000 </v>
   <v>       0.56250000       0.56250000       0.06250000 </v>
   <v>       0.06250000       0.06250000       0.56250000 </v>
   <v>       0.56250000       0.06250000       0.56250000 </v>
   <v>       0.06250000       0.56250000       0.56250000 </v>
   <v>       0.56250000       0.56250000       0.56250000 </v>
   <v>       0.06250000       0.31250000       0.31250000 </v>
   <v>       0.56250000       0.31250000       0.31250000 </v>
   <v>       0.06250000       0.81250000       0.31250000 </v>
   <v>       0.56250000       0.81250000       0.31250000 </v>
   <v>       0.06250000       0.31250000       0.81250000 </v>
   <v>       0.56250000       0.31250000       0.81250000 </v>
   <v>       0.06250000       0.81250000       0.81250000 </v>
   <v>       0.56250000       0.81250000       0.81250000 </v>
   <v>       0.31250000       0.06250000       0.31250000 </v>
   <v>       0.81250000       0.06250000       0.31250000 </v>
   <v>       0.31250000       0.56250000       0.31250000 </v>
   <v>       0.81250000       0.56250000       0.31250000 </v>
   <v>       0.31250000       0.06250000       0.81250000 </v>
   <v>       0.81250000       0.06250000       0.81250000 </v>
   <v>       0.31250000       0.56250000       0.81250000 </v>
   <v>       0.81250000       0.56250000       0.81250000 </v>
   <v>       0.31250000       0.31250000       0.06250000 </v>
   <v>       0.81250000       0.31250000       0.06250000 </v>
   <v>       0.31250000       0.81250000       0.06250000 </v>
   <v>       0.81250000       0.81250000       0.06250000 </v>
   <v>       0.31250000       0.31250000       0.56250000 </v>
   <v>       0.81250000       0.31250000       0.56250000 </v>
   <v>       0.31250000       0.81250000       0.56250000 </v>
   <v>       0.81250000       0.81250000       0.56250000 </v>
  </varray>
 </structure>
</modeling>
