
     Program PWSCF v.5.3.0 (svn rev. 11974) starts on  3Feb2016 at 13:43:27 

     This program is part of the open-source Quantum ESPRESSO suite
     for quantum simulation of materials; please cite
         "P. Giannozzi et al., J. Phys.:Condens. Matter 21 395502 (2009);
          URL http://www.quantum-espresso.org", 
     in publications or presentations arising from this work. More details at
     http://www.quantum-espresso.org/quote

     Parallel version (MPI), running on    16 processors
     R & G space division:  proc/nbgrp/npool/nimage =      16
     Reading input from Si.in

     Current dimensions of program PWSCF are:
     Max number of different atomic species (ntypx) = 10
     Max number of k-points (npk) =  40000
     Max angular momentum in pseudopotentials (lmaxx) =  3
               file Si.pbe-n-kjpaw_psl.0.1.UPF: wavefunction(s)  3S renormalized

     Subspace diagonalization in iterative solution of the eigenvalue problem:
     one sub-group per k-point group (pool) will be used
     scalapack distributed-memory algorithm (size of sub-group:  2*  2 procs)

 
     Parallelization info
     --------------------
     sticks:   dense  smooth     PW     G-vecs:    dense   smooth      PW
     Min         424     424    109                26332    26332    3467
     Max         425     425    110                26336    26336    3472
     Sum        6785    6785   1757               421349   421349   55515
 


     bravais-lattice index     =            0
     lattice parameter (alat)  =      20.6591  a.u.
     unit-cell volume          =    8817.2783 (a.u.)^3
     number of atoms/cell      =           64
     number of atomic types    =            1
     number of electrons       =       256.00
     number of Kohn-Sham states=          154
     kinetic-energy cutoff     =      50.0000  Ry
     charge density cutoff     =     200.0000  Ry
     convergence threshold     =      1.0E-09
     mixing beta               =       0.7000
     number of iterations used =            8  plain     mixing
     Exchange-correlation      =  SLA  PW   PBX  PBC ( 1  4  3  4 0 0)

     celldm(1)=  20.659106  celldm(2)=   0.000000  celldm(3)=   0.000000
     celldm(4)=   0.000000  celldm(5)=   0.000000  celldm(6)=   0.000000

     crystal axes: (cart. coord. in units of alat)
               a(1) = (   1.000000   0.000000   0.000000 )  
               a(2) = (   0.000000   1.000000   0.000000 )  
               a(3) = (   0.000000   0.000000   1.000000 )  

     reciprocal axes: (cart. coord. in units 2 pi/alat)
               b(1) = (  1.000000  0.000000  0.000000 )  
               b(2) = (  0.000000  1.000000  0.000000 )  
               b(3) = (  0.000000  0.000000  1.000000 )  


     PseudoPot. # 1 for Si read from file:
     /home/togo/espresso/pseudo/Si.pbe-n-kjpaw_psl.0.1.UPF
     MD5 check sum: b9d333a40e496bef61db012f150758bf
     Pseudo is Projector augmented-wave + core cor, Zval =  4.0
     Generated using "atomic" code by A. Dal Corso  v.5.0.2 svn rev. 9415
     Shape of augmentation charge: PSQ
     Using radial grid of 1141 points,  4 beta functions with: 
                l(1) =   0
                l(2) =   0
                l(3) =   1
                l(4) =   1
     Q(r) pseudized with 0 coefficients 


     atomic species   valence    mass     pseudopotential
        Si             4.00    28.08550     Si( 1.00)

      2 Sym. Ops., with inversion, found ( 1 have fractional translation)



   Cartesian axes

     site n.     atom                  positions (alat units)
         1           Si  tau(   1) = (   0.4404043   0.4375000   0.4375000  )
         2           Si  tau(   2) = (   0.9375000   0.4375000   0.4375000  )
         3           Si  tau(   3) = (   0.4375000   0.9375000   0.4375000  )
         4           Si  tau(   4) = (   0.9375000   0.9375000   0.4375000  )
         5           Si  tau(   5) = (   0.4375000   0.4375000   0.9375000  )
         6           Si  tau(   6) = (   0.9375000   0.4375000   0.9375000  )
         7           Si  tau(   7) = (   0.4375000   0.9375000   0.9375000  )
         8           Si  tau(   8) = (   0.9375000   0.9375000   0.9375000  )
         9           Si  tau(   9) = (   0.4375000   0.1875000   0.1875000  )
        10           Si  tau(  10) = (   0.9375000   0.1875000   0.1875000  )
        11           Si  tau(  11) = (   0.4375000   0.6875000   0.1875000  )
        12           Si  tau(  12) = (   0.9375000   0.6875000   0.1875000  )
        13           Si  tau(  13) = (   0.4375000   0.1875000   0.6875000  )
        14           Si  tau(  14) = (   0.9375000   0.1875000   0.6875000  )
        15           Si  tau(  15) = (   0.4375000   0.6875000   0.6875000  )
        16           Si  tau(  16) = (   0.9375000   0.6875000   0.6875000  )
        17           Si  tau(  17) = (   0.1875000   0.4375000   0.1875000  )
        18           Si  tau(  18) = (   0.6875000   0.4375000   0.1875000  )
        19           Si  tau(  19) = (   0.1875000   0.9375000   0.1875000  )
        20           Si  tau(  20) = (   0.6875000   0.9375000   0.1875000  )
        21           Si  tau(  21) = (   0.1875000   0.4375000   0.6875000  )
        22           Si  tau(  22) = (   0.6875000   0.4375000   0.6875000  )
        23           Si  tau(  23) = (   0.1875000   0.9375000   0.6875000  )
        24           Si  tau(  24) = (   0.6875000   0.9375000   0.6875000  )
        25           Si  tau(  25) = (   0.1875000   0.1875000   0.4375000  )
        26           Si  tau(  26) = (   0.6875000   0.1875000   0.4375000  )
        27           Si  tau(  27) = (   0.1875000   0.6875000   0.4375000  )
        28           Si  tau(  28) = (   0.6875000   0.6875000   0.4375000  )
        29           Si  tau(  29) = (   0.1875000   0.1875000   0.9375000  )
        30           Si  tau(  30) = (   0.6875000   0.1875000   0.9375000  )
        31           Si  tau(  31) = (   0.1875000   0.6875000   0.9375000  )
        32           Si  tau(  32) = (   0.6875000   0.6875000   0.9375000  )
        33           Si  tau(  33) = (   0.0625000   0.0625000   0.0625000  )
        34           Si  tau(  34) = (   0.5625000   0.0625000   0.0625000  )
        35           Si  tau(  35) = (   0.0595957   0.5625000   0.0625000  )
        36           Si  tau(  36) = (   0.5625000   0.5625000   0.0625000  )
        37           Si  tau(  37) = (   0.0625000   0.0625000   0.5625000  )
        38           Si  tau(  38) = (   0.5625000   0.0625000   0.5625000  )
        39           Si  tau(  39) = (   0.0625000   0.5625000   0.5625000  )
        40           Si  tau(  40) = (   0.5625000   0.5625000   0.5625000  )
        41           Si  tau(  41) = (   0.0625000   0.3125000   0.3125000  )
        42           Si  tau(  42) = (   0.5625000   0.3125000   0.3125000  )
        43           Si  tau(  43) = (   0.0625000   0.8125000   0.3125000  )
        44           Si  tau(  44) = (   0.5625000   0.8125000   0.3125000  )
        45           Si  tau(  45) = (   0.0625000   0.3125000   0.8125000  )
        46           Si  tau(  46) = (   0.5625000   0.3125000   0.8125000  )
        47           Si  tau(  47) = (   0.0625000   0.8125000   0.8125000  )
        48           Si  tau(  48) = (   0.5625000   0.8125000   0.8125000  )
        49           Si  tau(  49) = (   0.3125000   0.0625000   0.3125000  )
        50           Si  tau(  50) = (   0.8125000   0.0625000   0.3125000  )
        51           Si  tau(  51) = (   0.3125000   0.5625000   0.3125000  )
        52           Si  tau(  52) = (   0.8125000   0.5625000   0.3125000  )
        53           Si  tau(  53) = (   0.3125000   0.0625000   0.8125000  )
        54           Si  tau(  54) = (   0.8125000   0.0625000   0.8125000  )
        55           Si  tau(  55) = (   0.3125000   0.5625000   0.8125000  )
        56           Si  tau(  56) = (   0.8125000   0.5625000   0.8125000  )
        57           Si  tau(  57) = (   0.3125000   0.3125000   0.0625000  )
        58           Si  tau(  58) = (   0.8125000   0.3125000   0.0625000  )
        59           Si  tau(  59) = (   0.3125000   0.8125000   0.0625000  )
        60           Si  tau(  60) = (   0.8125000   0.8125000   0.0625000  )
        61           Si  tau(  61) = (   0.3125000   0.3125000   0.5625000  )
        62           Si  tau(  62) = (   0.8125000   0.3125000   0.5625000  )
        63           Si  tau(  63) = (   0.3125000   0.8125000   0.5625000  )
        64           Si  tau(  64) = (   0.8125000   0.8125000   0.5625000  )

     number of k points=     4  gaussian smearing, width (Ry)=  0.0100
                       cart. coord. in units 2pi/alat
        k(    1) = (   0.2500000   0.2500000   0.2500000), wk =   0.5000000
        k(    2) = (  -0.2500000   0.2500000  -0.2500000), wk =   0.5000000
        k(    3) = (   0.2500000  -0.2500000  -0.2500000), wk =   0.5000000
        k(    4) = (   0.2500000   0.2500000  -0.2500000), wk =   0.5000000

     Dense  grid:   421349 G-vectors     FFT dimensions: (  96,  96,  96)

     Largest allocated arrays     est. size (Mb)     dimensions
        Kohn-Sham Wavefunctions         7.72 Mb     (    3285,  154)
        NL pseudopotentials            25.66 Mb     (    3285,  512)
        Each V/rho on FFT grid          0.84 Mb     (   55296)
        Each G-vector array             0.20 Mb     (   26336)
        G-vector shells                 0.01 Mb     (    1719)
     Largest temporary arrays     est. size (Mb)     dimensions
        Auxiliary wavefunctions        30.88 Mb     (    3285,  616)
        Each subspace H/S matrix        1.45 Mb     (     308,  308)
        Each <psi_i|beta_j> matrix      1.20 Mb     (     512,  154)
        Arrays for rho mixing           6.75 Mb     (   55296,    8)

     Check: negative/imaginary core charge=   -0.000001    0.000000

     Initial potential from superposition of free atoms

     starting charge  255.96421, renormalised to  256.00000
     Starting wfc are  256 randomized atomic wfcs
     Checking if some PAW data can be deallocated... 

     total cpu time spent up to now is        9.1 secs

     per-process dynamical memory:   117.0 Mb

     Self-consistent Calculation

     iteration #  1     ecut=    50.00 Ry     beta=0.70
     Davidson diagonalization with overlap
     ethr =  1.00E-02,  avg # of iterations =  3.0

     Threshold (ethr) on eigenvalues was too large:
     Diagonalizing with lowered threshold

     Davidson diagonalization with overlap
     ethr =  7.00E-04,  avg # of iterations =  1.0

     total cpu time spent up to now is       46.4 secs

     total energy              =   -2990.45694968 Ry
     Harris-Foulkes estimate   =   -2990.87646363 Ry
     estimated scf accuracy    <       1.77318489 Ry

     iteration #  2     ecut=    50.00 Ry     beta=0.70
     Davidson diagonalization with overlap
     ethr =  6.93E-04,  avg # of iterations =  1.0

     total cpu time spent up to now is       59.6 secs

     total energy              =   -2990.52361216 Ry
     Harris-Foulkes estimate   =   -2990.52745459 Ry
     estimated scf accuracy    <       0.07631102 Ry

     iteration #  3     ecut=    50.00 Ry     beta=0.70
     Davidson diagonalization with overlap
     ethr =  2.98E-05,  avg # of iterations = 10.2

     total cpu time spent up to now is       88.5 secs

     total energy              =   -2990.53063392 Ry
     Harris-Foulkes estimate   =   -2990.53134690 Ry
     estimated scf accuracy    <       0.00188021 Ry

     iteration #  4     ecut=    50.00 Ry     beta=0.70
     Davidson diagonalization with overlap
     ethr =  7.34E-07,  avg # of iterations =  6.8

     total cpu time spent up to now is      124.5 secs

     total energy              =   -2990.53057636 Ry
     Harris-Foulkes estimate   =   -2990.53252724 Ry
     estimated scf accuracy    <       0.00607547 Ry

     iteration #  5     ecut=    50.00 Ry     beta=0.70
     Davidson diagonalization with overlap
     ethr =  7.34E-07,  avg # of iterations =  4.0

     total cpu time spent up to now is      146.9 secs

     total energy              =   -2990.53148780 Ry
     Harris-Foulkes estimate   =   -2990.53159062 Ry
     estimated scf accuracy    <       0.00029007 Ry

     iteration #  6     ecut=    50.00 Ry     beta=0.70
     Davidson diagonalization with overlap
     ethr =  1.13E-07,  avg # of iterations =  3.0

     total cpu time spent up to now is      164.6 secs

     total energy              =   -2990.53154117 Ry
     Harris-Foulkes estimate   =   -2990.53155854 Ry
     estimated scf accuracy    <       0.00005129 Ry

     iteration #  7     ecut=    50.00 Ry     beta=0.70
     Davidson diagonalization with overlap
     ethr =  2.00E-08,  avg # of iterations =  2.0

     total cpu time spent up to now is      181.1 secs

     total energy              =   -2990.53155012 Ry
     Harris-Foulkes estimate   =   -2990.53155127 Ry
     estimated scf accuracy    <       0.00000263 Ry

     iteration #  8     ecut=    50.00 Ry     beta=0.70
     Davidson diagonalization with overlap
     ethr =  1.03E-09,  avg # of iterations =  3.0

     total cpu time spent up to now is      204.6 secs

     total energy              =   -2990.53155105 Ry
     Harris-Foulkes estimate   =   -2990.53155122 Ry
     estimated scf accuracy    <       0.00000037 Ry

     iteration #  9     ecut=    50.00 Ry     beta=0.70
     Davidson diagonalization with overlap
     ethr =  1.46E-10,  avg # of iterations =  2.5

     total cpu time spent up to now is      222.3 secs

     total energy              =   -2990.53155104 Ry
     Harris-Foulkes estimate   =   -2990.53155114 Ry
     estimated scf accuracy    <       0.00000015 Ry

     iteration # 10     ecut=    50.00 Ry     beta=0.70
     Davidson diagonalization with overlap
     ethr =  5.99E-11,  avg # of iterations =  2.8

     total cpu time spent up to now is      238.9 secs

     total energy              =   -2990.53155102 Ry
     Harris-Foulkes estimate   =   -2990.53155107 Ry
     estimated scf accuracy    <       0.00000005 Ry

     iteration # 11     ecut=    50.00 Ry     beta=0.70
     Davidson diagonalization with overlap
     ethr =  1.97E-11,  avg # of iterations =  2.0

     total cpu time spent up to now is      255.4 secs

     total energy              =   -2990.53155104 Ry
     Harris-Foulkes estimate   =   -2990.53155103 Ry
     estimated scf accuracy    <          1.4E-09 Ry

     iteration # 12     ecut=    50.00 Ry     beta=0.70
     Davidson diagonalization with overlap
     ethr =  5.54E-13,  avg # of iterations =  3.0

     total cpu time spent up to now is      280.2 secs

     End of self-consistent calculation

          k = 0.2500 0.2500 0.2500 ( 52563 PWs)   bands (ev):

    -5.6250  -5.0996  -5.0966  -5.0932  -4.5996  -4.5971  -4.5934  -4.1620
    -4.0665  -4.0630  -4.0597  -3.6574  -3.6519  -3.6473  -3.6453  -3.6419
    -3.6413  -3.4618  -3.4529  -3.4518  -2.9604  -2.9572  -2.9525  -2.5940
    -2.5885  -2.5864  -2.4308  -2.4248  -2.4212  -2.4188  -2.4163  -2.4145
    -0.8852  -0.8830  -0.8782  -0.8753  -0.8747  -0.8710  -0.7810  -0.7808
    -0.7765  -0.6666  -0.6605  -0.6541  -0.5858  -0.5796  -0.5758   0.1226
     0.2060   0.2068   0.2106   0.2135   0.2162   0.2205   1.0809   1.0820
     1.0860   1.4129   1.4209   1.4213   2.0228   2.0280   2.0292   2.0302
     2.0321   2.0326   2.0862   2.0908   2.0918   2.6355   2.6390   2.6400
     2.7396   2.7420   2.7431   2.7437   2.7476   2.7497   2.7940   2.8012
     2.8019   3.1024   3.1035   3.1073   3.1080   3.1099   3.1133   3.3704
     3.3724   3.3758   3.3820   3.3899   3.3907   3.7302   3.7323   3.7354
     3.7484   3.7545   3.7572   3.8386   3.8394   3.8440   4.1003   4.1112
     4.1125   4.1138   4.1150   4.1162   4.1527   4.1536   4.1590   4.4087
     4.4710   4.4714   4.4779   4.7138   4.7149   4.7204   4.7710   4.7736
     4.7778   4.9325   4.9425   5.2429   5.2443   5.2520   5.7207   5.7321
     6.9326   6.9400   6.9411   7.3748   7.3763   7.3814   7.6002   7.8610
     7.8616   7.8679   7.9874   7.9878   7.9957   8.1492   8.1510   8.1549
     8.1658   8.1689   8.1749   8.3963   8.3970   8.3979   8.4022   8.4026
     8.4073   8.4504

          k =-0.2500 0.2500-0.2500 ( 52563 PWs)   bands (ev):

    -5.6251  -5.0988  -5.0962  -5.0937  -4.5994  -4.5965  -4.5944  -4.1641
    -4.0661  -4.0636  -4.0616  -3.6518  -3.6501  -3.6476  -3.6471  -3.6439
    -3.6391  -3.4575  -3.4525  -3.4520  -2.9631  -2.9597  -2.9585  -2.5926
    -2.5887  -2.5857  -2.4253  -2.4245  -2.4215  -2.4207  -2.4189  -2.4117
    -0.8861  -0.8838  -0.8787  -0.8781  -0.8780  -0.8678  -0.7855  -0.7823
    -0.7765  -0.6673  -0.6668  -0.6574  -0.5770  -0.5754  -0.5629   0.1301
     0.2004   0.2036   0.2093   0.2106   0.2114   0.2202   1.0835   1.0860
     1.0939   1.4148   1.4166   1.4235   2.0240   2.0265   2.0278   2.0295
     2.0323   2.0335   2.0846   2.0858   2.0913   2.6399   2.6414   2.6448
     2.7363   2.7380   2.7417   2.7428   2.7452   2.7463   2.7913   2.7933
     2.7990   3.1027   3.1048   3.1064   3.1076   3.1092   3.1156   3.3670
     3.3718   3.3724   3.3823   3.3831   3.3897   3.7338   3.7358   3.7402
     3.7571   3.7598   3.7620   3.8345   3.8388   3.8419   4.1128   4.1135
     4.1138   4.1169   4.1216   4.1233   4.1478   4.1529   4.1566   4.4171
     4.4648   4.4702   4.4711   4.7082   4.7136   4.7155   4.7793   4.7812
     4.7909   4.9299   4.9401   5.2348   5.2425   5.2452   5.7159   5.7272
     6.9316   6.9359   6.9360   7.3699   7.3772   7.3806   7.5972   7.8550
     7.8608   7.8648   7.9907   7.9917   7.9969   8.1480   8.1505   8.1538
     8.1649   8.1701   8.1706   8.3985   8.4014   8.4025   8.4045   8.4057
     8.4123   8.4459

          k = 0.2500-0.2500-0.2500 ( 52563 PWs)   bands (ev):

    -5.6250  -5.0996  -5.0966  -5.0932  -4.5996  -4.5970  -4.5935  -4.1622
    -4.0665  -4.0630  -4.0594  -3.6569  -3.6510  -3.6463  -3.6441  -3.6435
    -3.6434  -3.4624  -3.4523  -3.4518  -2.9604  -2.9572  -2.9525  -2.5969
    -2.5864  -2.5855  -2.4307  -2.4241  -2.4201  -2.4180  -2.4171  -2.4165
    -0.8855  -0.8838  -0.8769  -0.8766  -0.8724  -0.8719  -0.7870  -0.7764
    -0.7754  -0.6671  -0.6606  -0.6534  -0.5857  -0.5796  -0.5758   0.1225
     0.2048   0.2048   0.2114   0.2130   0.2182   0.2213   1.0808   1.0820
     1.0860   1.4128   1.4209   1.4213   2.0231   2.0277   2.0289   2.0295
     2.0325   2.0338   2.0862   2.0904   2.0915   2.6346   2.6398   2.6399
     2.7386   2.7405   2.7420   2.7449   2.7497   2.7513   2.7940   2.8006
     2.8014   3.1025   3.1035   3.1069   3.1084   3.1098   3.1136   3.3703
     3.3735   3.3748   3.3820   3.3900   3.3904   3.7307   3.7317   3.7351
     3.7479   3.7554   3.7572   3.8387   3.8393   3.8442   4.1003   4.1106
     4.1117   4.1142   4.1159   4.1165   4.1527   4.1535   4.1587   4.4088
     4.4710   4.4733   4.4759   4.7139   4.7148   4.7209   4.7710   4.7737
     4.7778   4.9325   4.9423   5.2429   5.2443   5.2518   5.7207   5.7322
     6.9326   6.9400   6.9411   7.3749   7.3763   7.3814   7.6002   7.8610
     7.8617   7.8677   7.9863   7.9878   7.9968   8.1494   8.1511   8.1544
     8.1658   8.1712   8.1734   8.3947   8.3960   8.3992   8.4020   8.4041
     8.4068   8.4507

          k = 0.2500 0.2500-0.2500 ( 52563 PWs)   bands (ev):

    -5.6251  -5.0998  -5.0972  -5.0917  -4.6004  -4.5977  -4.5922  -4.1642
    -4.0674  -4.0646  -4.0591  -3.6525  -3.6510  -3.6483  -3.6471  -3.6423
    -3.6383  -3.4574  -3.4527  -3.4520  -2.9656  -2.9603  -2.9553  -2.5926
    -2.5885  -2.5857  -2.4259  -2.4247  -2.4226  -2.4217  -2.4171  -2.4108
    -0.8852  -0.8828  -0.8811  -0.8797  -0.8762  -0.8681  -0.7853  -0.7825
    -0.7762  -0.6672  -0.6668  -0.6572  -0.5777  -0.5706  -0.5671   0.1300
     0.2026   0.2044   0.2068   0.2089   0.2128   0.2202   1.0835   1.0858
     1.0940   1.4149   1.4161   1.4239   2.0242   2.0267   2.0280   2.0290
     2.0322   2.0334   2.0851   2.0860   2.0906   2.6400   2.6412   2.6448
     2.7367   2.7372   2.7417   2.7435   2.7448   2.7461   2.7914   2.7936
     2.7988   3.1023   3.1040   3.1073   3.1077   3.1094   3.1156   3.3674
     3.3715   3.3722   3.3821   3.3830   3.3903   3.7342   3.7350   3.7403
     3.7568   3.7598   3.7626   3.8345   3.8388   3.8418   4.1119   4.1134
     4.1149   4.1176   4.1208   4.1230   4.1482   4.1527   4.1566   4.4171
     4.4648   4.4702   4.4711   4.7084   4.7133   4.7156   4.7791   4.7828
     4.7895   4.9299   4.9402   5.2355   5.2417   5.2453   5.7160   5.7272
     6.9316   6.9360   6.9361   7.3727   7.3741   7.3809   7.5972   7.8561
     7.8595   7.8649   7.9907   7.9916   7.9969   8.1466   8.1523   8.1540
     8.1652   8.1694   8.1704   8.3971   8.4006   8.4025   8.4054   8.4069
     8.4122   8.4460

     the Fermi energy is     6.3278 ev

!    total energy              =   -2990.53155104 Ry
     Harris-Foulkes estimate   =   -2990.53155104 Ry
     estimated scf accuracy    <          8.0E-10 Ry

     total all-electron energy =    -37124.667104 Ry

     The total energy is the sum of the following terms:

     one-electron contribution =     178.60633421 Ry
     hartree contribution      =      35.70153892 Ry
     xc contribution           =    -391.44199634 Ry
     ewald contribution        =    -534.00612253 Ry
     one-center paw contrib.   =   -2279.39130531 Ry
     smearing contrib. (-TS)   =       0.00000000 Ry

     convergence has been achieved in  12 iterations

     Forces acting on atoms (Ry/au):

     atom    1 type  1   force =    -0.01591431   -0.00002679   -0.00002365
     atom    2 type  1   force =     0.00008299   -0.00005016   -0.00003835
     atom    3 type  1   force =     0.00007549   -0.00003108   -0.00003178
     atom    4 type  1   force =    -0.00026353   -0.00002695   -0.00002819
     atom    5 type  1   force =     0.00006680   -0.00003805   -0.00003815
     atom    6 type  1   force =    -0.00393704   -0.00270424   -0.00270542
     atom    7 type  1   force =    -0.00050072   -0.00002651   -0.00002606
     atom    8 type  1   force =     0.00008513   -0.00003897   -0.00005047
     atom    9 type  1   force =    -0.00055532    0.00013965    0.00014090
     atom   10 type  1   force =     0.00006122    0.00004745    0.00006029
     atom   11 type  1   force =    -0.00051244    0.00014856   -0.00007168
     atom   12 type  1   force =    -0.00392804    0.00271374    0.00269585
     atom   13 type  1   force =    -0.00050304   -0.00007776    0.00014056
     atom   14 type  1   force =    -0.00025534    0.00001927    0.00003676
     atom   15 type  1   force =    -0.00055417   -0.00008761   -0.00008772
     atom   16 type  1   force =     0.00006084    0.00004045    0.00002994
     atom   17 type  1   force =    -0.00357804    0.00237311   -0.00225351
     atom   18 type  1   force =     0.00025130   -0.00007507   -0.00026999
     atom   19 type  1   force =     0.00010166    0.00002743   -0.00012883
     atom   20 type  1   force =     0.00001404    0.00001783    0.00004715
     atom   21 type  1   force =     0.00028978    0.00016089   -0.00026502
     atom   22 type  1   force =     0.00021015    0.00014313    0.00020577
     atom   23 type  1   force =    -0.00021006    0.00003656    0.00004985
     atom   24 type  1   force =     0.00006469    0.00004053   -0.00010653
     atom   25 type  1   force =    -0.00002135    0.00020050   -0.00008268
     atom   26 type  1   force =     0.00026032   -0.00026379   -0.00008254
     atom   27 type  1   force =     0.00029013   -0.00027943    0.00014622
     atom   28 type  1   force =     0.00020984    0.00020234    0.00014075
     atom   29 type  1   force =     0.00010165   -0.00011409    0.00004243
     atom   30 type  1   force =     0.00001426    0.00004893    0.00001903
     atom   31 type  1   force =    -0.00376877   -0.00240391    0.00249116
     atom   32 type  1   force =     0.00005456   -0.00011427    0.00004643
     atom   33 type  1   force =    -0.00007549    0.00003108    0.00003178
     atom   34 type  1   force =     0.00026353    0.00002695    0.00002819
     atom   35 type  1   force =     0.01591431    0.00002679    0.00002365
     atom   36 type  1   force =    -0.00008299    0.00005016    0.00003835
     atom   37 type  1   force =     0.00050072    0.00002651    0.00002606
     atom   38 type  1   force =    -0.00008513    0.00003897    0.00005047
     atom   39 type  1   force =    -0.00006680    0.00003805    0.00003815
     atom   40 type  1   force =     0.00393704    0.00270424    0.00270542
     atom   41 type  1   force =     0.00051244   -0.00014856    0.00007168
     atom   42 type  1   force =     0.00392804   -0.00271374   -0.00269585
     atom   43 type  1   force =     0.00055532   -0.00013965   -0.00014090
     atom   44 type  1   force =    -0.00006122   -0.00004745   -0.00006029
     atom   45 type  1   force =     0.00055417    0.00008761    0.00008772
     atom   46 type  1   force =    -0.00006084   -0.00004045   -0.00002994
     atom   47 type  1   force =     0.00050304    0.00007776   -0.00014056
     atom   48 type  1   force =     0.00025534   -0.00001927   -0.00003676
     atom   49 type  1   force =    -0.00010166   -0.00002743    0.00012883
     atom   50 type  1   force =    -0.00001404   -0.00001783   -0.00004715
     atom   51 type  1   force =     0.00357804   -0.00237311    0.00225351
     atom   52 type  1   force =    -0.00025130    0.00007507    0.00026999
     atom   53 type  1   force =     0.00021006   -0.00003656   -0.00004985
     atom   54 type  1   force =    -0.00006469   -0.00004053    0.00010653
     atom   55 type  1   force =    -0.00028978   -0.00016089    0.00026502
     atom   56 type  1   force =    -0.00021015   -0.00014313   -0.00020577
     atom   57 type  1   force =    -0.00029013    0.00027943   -0.00014622
     atom   58 type  1   force =    -0.00020984   -0.00020234   -0.00014075
     atom   59 type  1   force =     0.00002135   -0.00020050    0.00008268
     atom   60 type  1   force =    -0.00026032    0.00026379    0.00008254
     atom   61 type  1   force =     0.00376877    0.00240391   -0.00249116
     atom   62 type  1   force =    -0.00005456    0.00011427   -0.00004643
     atom   63 type  1   force =    -0.00010165    0.00011409   -0.00004243
     atom   64 type  1   force =    -0.00001426   -0.00004893   -0.00001903

     Total force =     0.027052     Total SCF correction =     0.000040

     Writing output data file pwscf.save
 
     init_run     :      8.77s CPU      8.89s WALL (       1 calls)
     electrons    :    265.01s CPU    271.26s WALL (       1 calls)
     forces       :      4.12s CPU      4.19s WALL (       1 calls)

     Called by init_run:
     wfcinit      :      8.18s CPU      8.26s WALL (       1 calls)
     potinit      :      0.24s CPU      0.24s WALL (       1 calls)

     Called by electrons:
     c_bands      :    238.75s CPU    243.99s WALL (      13 calls)
     sum_band     :     22.46s CPU     23.29s WALL (      13 calls)
     v_of_rho     :      0.63s CPU      0.64s WALL (      13 calls)
     newd         :      0.90s CPU      0.94s WALL (      13 calls)
     PAW_pot      :      2.14s CPU      2.14s WALL (      13 calls)
     mix_rho      :      0.29s CPU      0.29s WALL (      13 calls)

     Called by c_bands:
     init_us_2    :      2.46s CPU      2.48s WALL (     112 calls)
     cegterg      :    232.46s CPU    235.41s WALL (      52 calls)

     Called by sum_band:
     sum_band:bec :      0.04s CPU      0.05s WALL (      52 calls)
     addusdens    :      0.95s CPU      1.03s WALL (      13 calls)

     Called by *egterg:
     h_psi        :    109.43s CPU    109.69s WALL (     233 calls)
     s_psi        :     28.60s CPU     28.64s WALL (     233 calls)
     g_psi        :      0.98s CPU      0.99s WALL (     177 calls)
     cdiaghg      :     34.47s CPU     34.49s WALL (     225 calls)

     Called by h_psi:
     add_vuspsi   :     28.37s CPU     28.41s WALL (     233 calls)

     General routines
     calbec       :     43.94s CPU     44.00s WALL (     301 calls)
     fft          :      0.40s CPU      0.41s WALL (     182 calls)
     fftw         :     53.39s CPU     53.56s WALL (   53236 calls)
     davcio       :      0.00s CPU      0.04s WALL (       4 calls)
 
     Parallel routines
     fft_scatter  :     12.65s CPU     12.58s WALL (   53418 calls)
 
     PWSCF        :  4m38.75s CPU     4m53.64s WALL

 
   This run was terminated on:  13:48:21   3Feb2016            

=------------------------------------------------------------------------------=
   JOB DONE.
=------------------------------------------------------------------------------=
