
     Program PWSCF v.5.3.0 (svn rev. 11974) starts on  3Feb2016 at 13:39:38 

     This program is part of the open-source Quantum ESPRESSO suite
     for quantum simulation of materials; please cite
         "P. Giannozzi et al., J. Phys.:Condens. Matter 21 395502 (2009);
          URL http://www.quantum-espresso.org", 
     in publications or presentations arising from this work. More details at
     http://www.quantum-espresso.org/quote

     Parallel version (MPI), running on    16 processors
     R & G space division:  proc/nbgrp/npool/nimage =      16
     Reading input from Si.in

     Current dimensions of program PWSCF are:
     Max number of different atomic species (ntypx) = 10
     Max number of k-points (npk) =  40000
     Max angular momentum in pseudopotentials (lmaxx) =  3
               file Si.pbe-n-kjpaw_psl.0.1.UPF: wavefunction(s)  3S renormalized

     Subspace diagonalization in iterative solution of the eigenvalue problem:
     one sub-group per k-point group (pool) will be used
     scalapack distributed-memory algorithm (size of sub-group:  2*  2 procs)

 
     Parallelization info
     --------------------
     sticks:   dense  smooth     PW     G-vecs:    dense   smooth      PW
     Min         424     424    109                26332    26332    3467
     Max         425     425    110                26336    26336    3472
     Sum        6785    6785   1757               421349   421349   55515
 


     bravais-lattice index     =            0
     lattice parameter (alat)  =      20.6591  a.u.
     unit-cell volume          =    8817.2783 (a.u.)^3
     number of atoms/cell      =           64
     number of atomic types    =            1
     number of electrons       =       256.00
     number of Kohn-Sham states=          154
     kinetic-energy cutoff     =      50.0000  Ry
     charge density cutoff     =     200.0000  Ry
     convergence threshold     =      1.0E-09
     mixing beta               =       0.7000
     number of iterations used =            8  plain     mixing
     Exchange-correlation      =  SLA  PW   PBX  PBC ( 1  4  3  4 0 0)

     celldm(1)=  20.659106  celldm(2)=   0.000000  celldm(3)=   0.000000
     celldm(4)=   0.000000  celldm(5)=   0.000000  celldm(6)=   0.000000

     crystal axes: (cart. coord. in units of alat)
               a(1) = (   1.000000   0.000000   0.000000 )  
               a(2) = (   0.000000   1.000000   0.000000 )  
               a(3) = (   0.000000   0.000000   1.000000 )  

     reciprocal axes: (cart. coord. in units 2 pi/alat)
               b(1) = (  1.000000  0.000000  0.000000 )  
               b(2) = (  0.000000  1.000000  0.000000 )  
               b(3) = (  0.000000  0.000000  1.000000 )  


     PseudoPot. # 1 for Si read from file:
     /home/togo/espresso/pseudo/Si.pbe-n-kjpaw_psl.0.1.UPF
     MD5 check sum: b9d333a40e496bef61db012f150758bf
     Pseudo is Projector augmented-wave + core cor, Zval =  4.0
     Generated using "atomic" code by A. Dal Corso  v.5.0.2 svn rev. 9415
     Shape of augmentation charge: PSQ
     Using radial grid of 1141 points,  4 beta functions with: 
                l(1) =   0
                l(2) =   0
                l(3) =   1
                l(4) =   1
     Q(r) pseudized with 0 coefficients 


     atomic species   valence    mass     pseudopotential
        Si             4.00    28.08550     Si( 1.00)

     No symmetry found



   Cartesian axes

     site n.     atom                  positions (alat units)
         1           Si  tau(   1) = (   0.4404043   0.4375000   0.4375000  )
         2           Si  tau(   2) = (   0.9375000   0.4375000   0.4375000  )
         3           Si  tau(   3) = (   0.4375000   0.9375000   0.4375000  )
         4           Si  tau(   4) = (   0.9375000   0.9375000   0.4375000  )
         5           Si  tau(   5) = (   0.4375000   0.4375000   0.9375000  )
         6           Si  tau(   6) = (   0.9375000   0.4375000   0.9375000  )
         7           Si  tau(   7) = (   0.4375000   0.9375000   0.9375000  )
         8           Si  tau(   8) = (   0.9375000   0.9375000   0.9375000  )
         9           Si  tau(   9) = (   0.4375000   0.1875000   0.1875000  )
        10           Si  tau(  10) = (   0.9375000   0.1875000   0.1875000  )
        11           Si  tau(  11) = (   0.4375000   0.6875000   0.1875000  )
        12           Si  tau(  12) = (   0.9375000   0.6875000   0.1875000  )
        13           Si  tau(  13) = (   0.4375000   0.1875000   0.6875000  )
        14           Si  tau(  14) = (   0.9375000   0.1875000   0.6875000  )
        15           Si  tau(  15) = (   0.4375000   0.6875000   0.6875000  )
        16           Si  tau(  16) = (   0.9375000   0.6875000   0.6875000  )
        17           Si  tau(  17) = (   0.1875000   0.4375000   0.1875000  )
        18           Si  tau(  18) = (   0.6875000   0.4375000   0.1875000  )
        19           Si  tau(  19) = (   0.1875000   0.9375000   0.1875000  )
        20           Si  tau(  20) = (   0.6875000   0.9345957   0.1875000  )
        21           Si  tau(  21) = (   0.1875000   0.4375000   0.6875000  )
        22           Si  tau(  22) = (   0.6875000   0.4375000   0.6875000  )
        23           Si  tau(  23) = (   0.1875000   0.9375000   0.6875000  )
        24           Si  tau(  24) = (   0.6875000   0.9375000   0.6875000  )
        25           Si  tau(  25) = (   0.1875000   0.1875000   0.4375000  )
        26           Si  tau(  26) = (   0.6875000   0.1875000   0.4375000  )
        27           Si  tau(  27) = (   0.1875000   0.6875000   0.4375000  )
        28           Si  tau(  28) = (   0.6875000   0.6875000   0.4375000  )
        29           Si  tau(  29) = (   0.1875000   0.1875000   0.9375000  )
        30           Si  tau(  30) = (   0.6875000   0.1875000   0.9375000  )
        31           Si  tau(  31) = (   0.1875000   0.6875000   0.9375000  )
        32           Si  tau(  32) = (   0.6875000   0.6875000   0.9375000  )
        33           Si  tau(  33) = (   0.0625000   0.0625000   0.0625000  )
        34           Si  tau(  34) = (   0.5625000   0.0625000   0.0625000  )
        35           Si  tau(  35) = (   0.0625000   0.5625000   0.0625000  )
        36           Si  tau(  36) = (   0.5625000   0.5625000   0.0625000  )
        37           Si  tau(  37) = (   0.0625000   0.0625000   0.5625000  )
        38           Si  tau(  38) = (   0.5625000   0.0625000   0.5625000  )
        39           Si  tau(  39) = (   0.0625000   0.5625000   0.5625000  )
        40           Si  tau(  40) = (   0.5625000   0.5625000   0.5625000  )
        41           Si  tau(  41) = (   0.0625000   0.3125000   0.3125000  )
        42           Si  tau(  42) = (   0.5625000   0.3125000   0.3125000  )
        43           Si  tau(  43) = (   0.0625000   0.8125000   0.3125000  )
        44           Si  tau(  44) = (   0.5625000   0.8125000   0.3125000  )
        45           Si  tau(  45) = (   0.0625000   0.3125000   0.8125000  )
        46           Si  tau(  46) = (   0.5625000   0.3125000   0.8125000  )
        47           Si  tau(  47) = (   0.0625000   0.8125000   0.8125000  )
        48           Si  tau(  48) = (   0.5625000   0.8125000   0.8125000  )
        49           Si  tau(  49) = (   0.3125000   0.0625000   0.3125000  )
        50           Si  tau(  50) = (   0.8125000   0.0625000   0.3125000  )
        51           Si  tau(  51) = (   0.3125000   0.5625000   0.3125000  )
        52           Si  tau(  52) = (   0.8125000   0.5625000   0.3125000  )
        53           Si  tau(  53) = (   0.3125000   0.0625000   0.8125000  )
        54           Si  tau(  54) = (   0.8125000   0.0625000   0.8125000  )
        55           Si  tau(  55) = (   0.3125000   0.5625000   0.8125000  )
        56           Si  tau(  56) = (   0.8125000   0.5625000   0.8125000  )
        57           Si  tau(  57) = (   0.3125000   0.3125000   0.0625000  )
        58           Si  tau(  58) = (   0.8125000   0.3125000   0.0625000  )
        59           Si  tau(  59) = (   0.3125000   0.8125000   0.0625000  )
        60           Si  tau(  60) = (   0.8125000   0.8125000   0.0625000  )
        61           Si  tau(  61) = (   0.3125000   0.3125000   0.5625000  )
        62           Si  tau(  62) = (   0.8125000   0.3125000   0.5625000  )
        63           Si  tau(  63) = (   0.3125000   0.8125000   0.5625000  )
        64           Si  tau(  64) = (   0.8125000   0.8125000   0.5625000  )

     number of k points=     4  gaussian smearing, width (Ry)=  0.0100
                       cart. coord. in units 2pi/alat
        k(    1) = (   0.2500000   0.2500000   0.2500000), wk =   0.5000000
        k(    2) = (  -0.2500000  -0.2500000   0.2500000), wk =   0.5000000
        k(    3) = (  -0.2500000   0.2500000  -0.2500000), wk =   0.5000000
        k(    4) = (   0.2500000  -0.2500000  -0.2500000), wk =   0.5000000

     Dense  grid:   421349 G-vectors     FFT dimensions: (  96,  96,  96)

     Largest allocated arrays     est. size (Mb)     dimensions
        Kohn-Sham Wavefunctions         7.73 Mb     (    3289,  154)
        NL pseudopotentials            25.70 Mb     (    3289,  512)
        Each V/rho on FFT grid          0.84 Mb     (   55296)
        Each G-vector array             0.20 Mb     (   26336)
        G-vector shells                 0.01 Mb     (    1719)
     Largest temporary arrays     est. size (Mb)     dimensions
        Auxiliary wavefunctions        30.91 Mb     (    3289,  616)
        Each subspace H/S matrix        1.45 Mb     (     308,  308)
        Each <psi_i|beta_j> matrix      1.20 Mb     (     512,  154)
        Arrays for rho mixing           6.75 Mb     (   55296,    8)

     Check: negative/imaginary core charge=   -0.000001    0.000000

     Initial potential from superposition of free atoms

     starting charge  255.96421, renormalised to  256.00000
     Starting wfc are  256 randomized atomic wfcs
     Checking if some PAW data can be deallocated... 

     total cpu time spent up to now is       10.4 secs

     per-process dynamical memory:   114.8 Mb

     Self-consistent Calculation

     iteration #  1     ecut=    50.00 Ry     beta=0.70
     Davidson diagonalization with overlap
     ethr =  1.00E-02,  avg # of iterations =  3.0

     Threshold (ethr) on eigenvalues was too large:
     Diagonalizing with lowered threshold

     Davidson diagonalization with overlap
     ethr =  7.00E-04,  avg # of iterations =  1.0

     total cpu time spent up to now is       46.4 secs

     total energy              =   -2990.45696376 Ry
     Harris-Foulkes estimate   =   -2990.87677073 Ry
     estimated scf accuracy    <       1.77295968 Ry

     iteration #  2     ecut=    50.00 Ry     beta=0.70
     Davidson diagonalization with overlap
     ethr =  6.93E-04,  avg # of iterations =  1.0

     total cpu time spent up to now is       59.6 secs

     total energy              =   -2990.52359461 Ry
     Harris-Foulkes estimate   =   -2990.52748881 Ry
     estimated scf accuracy    <       0.07636696 Ry

     iteration #  3     ecut=    50.00 Ry     beta=0.70
     Davidson diagonalization with overlap
     ethr =  2.98E-05,  avg # of iterations = 10.2

     total cpu time spent up to now is       88.5 secs

     total energy              =   -2990.53053718 Ry
     Harris-Foulkes estimate   =   -2990.53138391 Ry
     estimated scf accuracy    <       0.00202605 Ry

     iteration #  4     ecut=    50.00 Ry     beta=0.70
     Davidson diagonalization with overlap
     ethr =  7.91E-07,  avg # of iterations =  7.2

     total cpu time spent up to now is      125.9 secs

     total energy              =   -2990.53025790 Ry
     Harris-Foulkes estimate   =   -2990.53285958 Ry
     estimated scf accuracy    <       0.00821761 Ry

     iteration #  5     ecut=    50.00 Ry     beta=0.70
     Davidson diagonalization with overlap
     ethr =  7.91E-07,  avg # of iterations =  4.8

     total cpu time spent up to now is      152.2 secs

     total energy              =   -2990.53147744 Ry
     Harris-Foulkes estimate   =   -2990.53160771 Ry
     estimated scf accuracy    <       0.00037679 Ry

     iteration #  6     ecut=    50.00 Ry     beta=0.70
     Davidson diagonalization with overlap
     ethr =  1.47E-07,  avg # of iterations =  2.0

     total cpu time spent up to now is      168.4 secs

     total energy              =   -2990.53154310 Ry
     Harris-Foulkes estimate   =   -2990.53155990 Ry
     estimated scf accuracy    <       0.00004774 Ry

     iteration #  7     ecut=    50.00 Ry     beta=0.70
     Davidson diagonalization with overlap
     ethr =  1.87E-08,  avg # of iterations =  3.0

     total cpu time spent up to now is      187.0 secs

     total energy              =   -2990.53155191 Ry
     Harris-Foulkes estimate   =   -2990.53155377 Ry
     estimated scf accuracy    <       0.00000425 Ry

     iteration #  8     ecut=    50.00 Ry     beta=0.70
     Davidson diagonalization with overlap
     ethr =  1.66E-09,  avg # of iterations =  3.0

     total cpu time spent up to now is      207.9 secs

     total energy              =   -2990.53155306 Ry
     Harris-Foulkes estimate   =   -2990.53155326 Ry
     estimated scf accuracy    <       0.00000044 Ry

     iteration #  9     ecut=    50.00 Ry     beta=0.70
     Davidson diagonalization with overlap
     ethr =  1.71E-10,  avg # of iterations =  3.0

     total cpu time spent up to now is      226.7 secs

     total energy              =   -2990.53155308 Ry
     Harris-Foulkes estimate   =   -2990.53155317 Ry
     estimated scf accuracy    <       0.00000013 Ry

     iteration # 10     ecut=    50.00 Ry     beta=0.70
     Davidson diagonalization with overlap
     ethr =  5.14E-11,  avg # of iterations =  3.0

     total cpu time spent up to now is      244.2 secs

     total energy              =   -2990.53155306 Ry
     Harris-Foulkes estimate   =   -2990.53155311 Ry
     estimated scf accuracy    <       0.00000007 Ry

     iteration # 11     ecut=    50.00 Ry     beta=0.70
     Davidson diagonalization with overlap
     ethr =  2.70E-11,  avg # of iterations =  2.0

     total cpu time spent up to now is      263.2 secs

     total energy              =   -2990.53155308 Ry
     Harris-Foulkes estimate   =   -2990.53155307 Ry
     estimated scf accuracy    <          2.5E-09 Ry

     iteration # 12     ecut=    50.00 Ry     beta=0.70
     Davidson diagonalization with overlap
     ethr =  9.77E-13,  avg # of iterations =  3.0

     total cpu time spent up to now is      285.8 secs

     total energy              =   -2990.53155308 Ry
     Harris-Foulkes estimate   =   -2990.53155308 Ry
     estimated scf accuracy    <          1.7E-09 Ry

     iteration # 13     ecut=    50.00 Ry     beta=0.70
     Davidson diagonalization with overlap
     ethr =  6.57E-13,  avg # of iterations =  2.0

     total cpu time spent up to now is      303.3 secs

     End of self-consistent calculation

          k = 0.2500 0.2500 0.2500 ( 52563 PWs)   bands (ev):

    -5.6250  -5.0990  -5.0970  -5.0930  -4.5991  -4.5975  -4.5937  -4.1631
    -4.0658  -4.0642  -4.0601  -3.6561  -3.6491  -3.6471  -3.6467  -3.6441
    -3.6394  -3.4589  -3.4548  -3.4506  -2.9608  -2.9593  -2.9555  -2.5931
    -2.5892  -2.5856  -2.4295  -2.4228  -2.4208  -2.4204  -2.4185  -2.4124
    -0.8876  -0.8812  -0.8784  -0.8775  -0.8753  -0.8698  -0.7838  -0.7805
    -0.7770  -0.6674  -0.6623  -0.6568  -0.5840  -0.5757  -0.5687   0.1263
     0.2027   0.2071   0.2102   0.2116   0.2148   0.2182   1.0791   1.0855
     1.0914   1.4141   1.4184   1.4225   2.0245   2.0266   2.0282   2.0302
     2.0310   2.0343   2.0851   2.0884   2.0912   2.6377   2.6402   2.6424
     2.7375   2.7404   2.7418   2.7443   2.7460   2.7485   2.7922   2.7961
     2.8015   3.1019   3.1058   3.1072   3.1077   3.1092   3.1136   3.3693
     3.3713   3.3738   3.3825   3.3868   3.3902   3.7311   3.7352   3.7374
     3.7528   3.7562   3.7607   3.8367   3.8401   3.8418   4.1058   4.1123
     4.1136   4.1144   4.1164   4.1227   4.1505   4.1543   4.1565   4.4129
     4.4676   4.4708   4.4746   4.7114   4.7149   4.7172   4.7729   4.7788
     4.7852   4.9319   4.9406   5.2392   5.2442   5.2473   5.7191   5.7289
     6.9330   6.9356   6.9401   7.3712   7.3782   7.3807   7.5987   7.8567
     7.8630   7.8658   7.9878   7.9917   7.9956   8.1470   8.1520   8.1544
     8.1663   8.1680   8.1737   8.3967   8.3981   8.4013   8.4039   8.4058
     8.4086   8.4481

          k =-0.2500-0.2500 0.2500 ( 52563 PWs)   bands (ev):

    -5.6250  -5.0997  -5.0955  -5.0938  -4.6001  -4.5960  -4.5941  -4.1632
    -4.0671  -4.0625  -4.0606  -3.6541  -3.6497  -3.6466  -3.6458  -3.6448
    -3.6413  -3.4589  -3.4548  -3.4505  -2.9637  -2.9575  -2.9545  -2.5931
    -2.5892  -2.5856  -2.4283  -2.4237  -2.4205  -2.4200  -2.4185  -2.4136
    -0.8882  -0.8818  -0.8782  -0.8775  -0.8752  -0.8691  -0.7837  -0.7803
    -0.7771  -0.6673  -0.6622  -0.6569  -0.5813  -0.5751  -0.5718   0.1263
     0.2016   0.2061   0.2110   0.2122   0.2147   0.2188   1.0799   1.0860
     1.0903   1.4138   1.4186   1.4226   2.0246   2.0267   2.0287   2.0301
     2.0306   2.0339   2.0850   2.0885   2.0914   2.6379   2.6399   2.6425
     2.7376   2.7394   2.7420   2.7447   2.7466   2.7484   2.7919   2.7967
     2.8010   3.1012   3.1052   3.1080   3.1083   3.1107   3.1118   3.3684
     3.3726   3.3736   3.3820   3.3868   3.3904   3.7317   3.7346   3.7372
     3.7524   3.7572   3.7601   3.8358   3.8401   3.8428   4.1065   4.1126
     4.1140   4.1150   4.1168   4.1206   4.1494   4.1543   4.1577   4.4131
     4.4674   4.4713   4.4740   4.7102   4.7148   4.7183   4.7743   4.7790
     4.7838   4.9318   4.9406   5.2379   5.2440   5.2488   5.7191   5.7289
     6.9324   6.9367   6.9396   7.3713   7.3770   7.3819   7.5987   7.8570
     7.8619   7.8666   7.9877   7.9917   7.9957   8.1474   8.1511   8.1551
     8.1653   8.1701   8.1722   8.3954   8.4001   8.4025   8.4033   8.4053
     8.4078   8.4479

          k =-0.2500 0.2500-0.2500 ( 52563 PWs)   bands (ev):

    -5.6251  -5.0993  -5.0960  -5.0934  -4.5997  -4.5964  -4.5941  -4.1643
    -4.0670  -4.0633  -4.0609  -3.6522  -3.6500  -3.6491  -3.6470  -3.6422
    -3.6389  -3.4576  -3.4553  -3.4493  -2.9635  -2.9601  -2.9577  -2.5925
    -2.5909  -2.5832  -2.4260  -2.4246  -2.4229  -2.4205  -2.4173  -2.4116
    -0.8859  -0.8838  -0.8803  -0.8782  -0.8757  -0.8687  -0.7856  -0.7829
    -0.7755  -0.6684  -0.6630  -0.6603  -0.5769  -0.5723  -0.5660   0.1299
     0.2015   0.2046   0.2080   0.2099   0.2129   0.2186   1.0830   1.0878
     1.0925   1.4152   1.4195   1.4201   2.0236   2.0275   2.0288   2.0298
     2.0311   2.0331   2.0850   2.0864   2.0902   2.6399   2.6412   2.6449
     2.7350   2.7392   2.7406   2.7438   2.7453   2.7463   2.7912   2.7931
     2.7989   3.1037   3.1057   3.1063   3.1073   3.1108   3.1127   3.3688
     3.3699   3.3723   3.3828   3.3860   3.3867   3.7338   3.7367   3.7388
     3.7562   3.7589   3.7645   3.8356   3.8382   3.8413   4.1124   4.1131
     4.1140   4.1162   4.1202   4.1254   4.1490   4.1524   4.1563   4.4172
     4.4668   4.4679   4.4711   4.7093   4.7127   4.7154   4.7791   4.7842
     4.7880   4.9325   4.9375   5.2362   5.2413   5.2449   5.7188   5.7244
     6.9317   6.9339   6.9380   7.3693   7.3780   7.3805   7.5972   7.8549
     7.8615   7.8643   7.9883   7.9946   7.9964   8.1454   8.1527   8.1538
     8.1666   8.1682   8.1712   8.3983   8.4000   8.4028   8.4058   8.4081
     8.4098   8.4459

          k = 0.2500-0.2500-0.2500 ( 52563 PWs)   bands (ev):

    -5.6250  -5.0993  -5.0967  -5.0934  -4.5995  -4.5969  -4.5937  -4.1620
    -4.0661  -4.0633  -4.0595  -3.6571  -3.6510  -3.6464  -3.6455  -3.6441
    -3.6413  -3.4600  -3.4543  -3.4521  -2.9607  -2.9575  -2.9518  -2.5956
    -2.5876  -2.5858  -2.4288  -2.4253  -2.4202  -2.4189  -2.4173  -2.4159
    -0.8857  -0.8817  -0.8776  -0.8758  -0.8744  -0.8717  -0.7853  -0.7778
    -0.7756  -0.6642  -0.6615  -0.6557  -0.5879  -0.5783  -0.5748   0.1225
     0.2034   0.2093   0.2109   0.2137   0.2160   0.2203   1.0758   1.0851
     1.0878   1.4148   1.4189   1.4215   2.0249   2.0274   2.0286   2.0296
     2.0317   2.0330   2.0869   2.0892   2.0921   2.6354   2.6389   2.6402
     2.7386   2.7419   2.7434   2.7453   2.7476   2.7497   2.7959   2.7984
     2.8024   3.1022   3.1056   3.1071   3.1081   3.1086   3.1128   3.3711
     3.3733   3.3741   3.3846   3.3875   3.3906   3.7295   3.7325   3.7356
     3.7488   3.7550   3.7567   3.8387   3.8400   3.8433   4.1027   4.1081
     4.1125   4.1145   4.1149   4.1163   4.1528   4.1544   4.1579   4.4089
     4.4711   4.4740   4.4749   4.7141   4.7157   4.7196   4.7671   4.7768
     4.7783   4.9350   4.9399   5.2431   5.2455   5.2505   5.7236   5.7293
     6.9346   6.9386   6.9406   7.3733   7.3784   7.3807   7.6002   7.8597
     7.8645   7.8663   7.9870   7.9889   7.9949   8.1490   8.1508   8.1558
     8.1670   8.1706   8.1719   8.3940   8.3968   8.4001   8.4029   8.4037
     8.4058   8.4503

     the Fermi energy is     6.3275 ev

!    total energy              =   -2990.53155308 Ry
     Harris-Foulkes estimate   =   -2990.53155308 Ry
     estimated scf accuracy    <          3.0E-10 Ry

     total all-electron energy =    -37124.667106 Ry

     The total energy is the sum of the following terms:

     one-electron contribution =     178.60654384 Ry
     hartree contribution      =      35.70143876 Ry
     xc contribution           =    -391.44199748 Ry
     ewald contribution        =    -534.00623225 Ry
     one-center paw contrib.   =   -2279.39130595 Ry
     smearing contrib. (-TS)   =       0.00000000 Ry

     convergence has been achieved in  13 iterations

     Forces acting on atoms (Ry/au):

     atom    1 type  1   force =    -0.01588114    0.00000069   -0.00000946
     atom    2 type  1   force =     0.00003221   -0.00000058    0.00000953
     atom    3 type  1   force =     0.00016894    0.00052843   -0.00011460
     atom    4 type  1   force =     0.00010240    0.00052327    0.00010950
     atom    5 type  1   force =     0.00004462   -0.00000089   -0.00000907
     atom    6 type  1   force =    -0.00001607    0.00000122    0.00000902
     atom    7 type  1   force =    -0.00058511    0.00052319   -0.00010971
     atom    8 type  1   force =    -0.00008938    0.00052770    0.00011407
     atom    9 type  1   force =    -0.00029976   -0.00011772    0.00022413
     atom   10 type  1   force =    -0.00022862   -0.00022213   -0.00010021
     atom   11 type  1   force =    -0.00075715   -0.00012878    0.00000483
     atom   12 type  1   force =     0.00023357   -0.00022845   -0.00012384
     atom   13 type  1   force =    -0.00060060   -0.00015218    0.00011854
     atom   14 type  1   force =     0.00007766   -0.00005230   -0.00000002
     atom   15 type  1   force =    -0.00045287   -0.00015678   -0.00010485
     atom   16 type  1   force =    -0.00007556   -0.00005226   -0.00001857
     atom   17 type  1   force =     0.00023185   -0.00010191    0.00022762
     atom   18 type  1   force =     0.00023822   -0.00013669   -0.00023257
     atom   19 type  1   force =     0.00004264   -0.00006512   -0.00007706
     atom   20 type  1   force =     0.00004203    0.01588149    0.00007693
     atom   21 type  1   force =     0.00023107    0.00008613   -0.00022725
     atom   22 type  1   force =     0.00023845    0.00012061    0.00023269
     atom   23 type  1   force =     0.00004271    0.00048373    0.00007716
     atom   24 type  1   force =     0.00004321   -0.00004492   -0.00007678
     atom   25 type  1   force =     0.00022233    0.00018509   -0.00003242
     atom   26 type  1   force =     0.00012798   -0.00046468   -0.00034214
     atom   27 type  1   force =     0.00022198   -0.00027021    0.00003357
     atom   28 type  1   force =     0.00012403   -0.00000506    0.00034589
     atom   29 type  1   force =     0.00005213   -0.00011970   -0.00008691
     atom   30 type  1   force =     0.00015264   -0.00015501    0.00021853
     atom   31 type  1   force =     0.00005161    0.00003403    0.00008558
     atom   32 type  1   force =     0.00015767   -0.00031430   -0.00022281
     atom   33 type  1   force =     0.00001547    0.00008909    0.00008252
     atom   34 type  1   force =     0.00273833   -0.00378339    0.00251029
     atom   35 type  1   force =     0.00005299   -0.00000114    0.00005355
     atom   36 type  1   force =    -0.00002266    0.00006238    0.00007726
     atom   37 type  1   force =     0.00005377   -0.00022810    0.00005443
     atom   38 type  1   force =    -0.00000869    0.00009738    0.00008649
     atom   39 type  1   force =     0.00001846    0.00006013    0.00006940
     atom   40 type  1   force =     0.00395785    0.00267676    0.00273123
     atom   41 type  1   force =    -0.00003784   -0.00006392   -0.00001121
     atom   42 type  1   force =     0.00389198   -0.00269310   -0.00266693
     atom   43 type  1   force =    -0.00001252    0.00003510    0.00002359
     atom   44 type  1   force =    -0.00276541   -0.00396787    0.00265539
     atom   45 type  1   force =    -0.00000506   -0.00000456    0.00000603
     atom   46 type  1   force =    -0.00008697   -0.00007634   -0.00001355
     atom   47 type  1   force =    -0.00004920   -0.00028789   -0.00000348
     atom   48 type  1   force =     0.00020575    0.00003280    0.00001090
     atom   49 type  1   force =    -0.00009502    0.00002092    0.00000045
     atom   50 type  1   force =    -0.00245403   -0.00383904   -0.00245271
     atom   51 type  1   force =     0.00378475   -0.00250925    0.00245214
     atom   52 type  1   force =    -0.00005037   -0.00002542   -0.00000024
     atom   53 type  1   force =     0.00022471   -0.00028114    0.00000002
     atom   54 type  1   force =    -0.00007287    0.00002767   -0.00000671
     atom   55 type  1   force =    -0.00009045   -0.00002976    0.00000645
     atom   56 type  1   force =     0.00000039   -0.00005705    0.00000049
     atom   57 type  1   force =    -0.00003311    0.00002610   -0.00006390
     atom   58 type  1   force =     0.00006605    0.00004148   -0.00006439
     atom   59 type  1   force =     0.00029124    0.00008789   -0.00007734
     atom   60 type  1   force =     0.00268403   -0.00389890   -0.00273565
     atom   61 type  1   force =     0.00384297    0.00250299   -0.00251330
     atom   62 type  1   force =     0.00001413    0.00001163   -0.00006302
     atom   63 type  1   force =    -0.00003124   -0.00021907   -0.00007939
     atom   64 type  1   force =     0.00007893    0.00008769   -0.00006811

     Total force =     0.027184     Total SCF correction =     0.000032

     Writing output data file pwscf.save
 
     init_run     :      8.73s CPU      8.86s WALL (       1 calls)
     electrons    :    281.98s CPU    299.69s WALL (       1 calls)
     forces       :      4.18s CPU      4.29s WALL (       1 calls)

     Called by init_run:
     wfcinit      :      8.16s CPU      8.23s WALL (       1 calls)
     potinit      :      0.24s CPU      0.24s WALL (       1 calls)

     Called by electrons:
     c_bands      :    253.82s CPU    263.46s WALL (      14 calls)
     sum_band     :     24.09s CPU     24.27s WALL (      14 calls)
     v_of_rho     :      0.68s CPU      0.69s WALL (      14 calls)
     newd         :      0.97s CPU      1.01s WALL (      14 calls)
     PAW_pot      :      2.30s CPU      2.31s WALL (      14 calls)
     mix_rho      :      0.31s CPU      0.32s WALL (      14 calls)

     Called by c_bands:
     init_us_2    :      2.67s CPU      2.71s WALL (     120 calls)
     cegterg      :    247.68s CPU    251.80s WALL (      56 calls)

     Called by sum_band:
     sum_band:bec :      0.05s CPU      0.05s WALL (      56 calls)
     addusdens    :      1.00s CPU      1.09s WALL (      14 calls)

     Called by *egterg:
     h_psi        :    116.95s CPU    117.47s WALL (     253 calls)
     s_psi        :     30.25s CPU     30.32s WALL (     253 calls)
     g_psi        :      1.05s CPU      1.06s WALL (     193 calls)
     cdiaghg      :     38.27s CPU     38.39s WALL (     245 calls)

     Called by h_psi:
     add_vuspsi   :     30.26s CPU     30.41s WALL (     253 calls)

     General routines
     calbec       :     46.78s CPU     46.94s WALL (     325 calls)
     fft          :      0.40s CPU      0.41s WALL (     195 calls)
     fftw         :     57.55s CPU     57.83s WALL (   56914 calls)
     davcio       :      0.00s CPU      0.01s WALL (       4 calls)
 
     Parallel routines
     fft_scatter  :     16.36s CPU     16.24s WALL (   57109 calls)
 
     PWSCF        :  4m55.18s CPU     7m 6.28s WALL

 
   This run was terminated on:  13:46:44   3Feb2016            

=------------------------------------------------------------------------------=
   JOB DONE.
=------------------------------------------------------------------------------=
