<?xml version="1.0" encoding="ISO-8859-1"?>
<modeling>
 <generator>
  <i name="program" type="string">vasp </i>
  <i name="version" type="string">5.4.1  </i>
  <i name="subversion" type="string">05Feb16 (build Mar 26 2016 11:58:25) complex                          parallel </i>
  <i name="platform" type="string">IFC91_ompi </i>
  <i name="date" type="string">2017 03 12 </i>
  <i name="time" type="string">12:13:57 </i>
 </generator>
 <incar>
  <i type="string" name="PREC">accurate</i>
  <i type="int" name="IALGO">    38</i>
  <i type="logical" name="ADDGRID"> T  </i>
  <i type="int" name="NELMIN">     5</i>
  <i type="int" name="IBRION">    -1</i>
  <i name="EDIFF">      0.00000001</i>
  <i name="ENCUT">    300.00000000</i>
  <i type="logical" name="LREAL"> F  </i>
  <i type="int" name="ISMEAR">     0</i>
  <i name="SIGMA">      0.05000000</i>
  <i type="logical" name="LWAVE"> F  </i>
  <i type="logical" name="LCHARG"> F  </i>
  <v type="int" name="KPOINT_BSE">    -1     0     0     0</v>
 </incar>
 <kpoints>
  <generation param="Monkhorst-Pack">
   <v type="int" name="divisions">       2        2        2 </v>
   <v name="usershift">      0.00000000       0.00000000       0.00000000 </v>
   <v name="genvec1">      0.50000000       0.00000000       0.00000000 </v>
   <v name="genvec2">      0.00000000       0.50000000       0.00000000 </v>
   <v name="genvec3">      0.00000000       0.00000000       0.50000000 </v>
   <v name="shift">      0.50000000       0.50000000       0.50000000 </v>
  </generation>
  <varray name="kpointlist" >
   <v>       0.25000000       0.25000000       0.25000000 </v>
   <v>      -0.25000000       0.25000000       0.25000000 </v>
   <v>       0.25000000      -0.25000000       0.25000000 </v>
  </varray>
  <varray name="weights" >
   <v>       0.25000000 </v>
   <v>       0.50000000 </v>
   <v>       0.25000000 </v>
  </varray>
 </kpoints>
 <parameters>
  <separator name="general" >
   <i type="string" name="SYSTEM">unknown system</i>
   <i type="logical" name="LCOMPAT"> F  </i>
  </separator>
  <separator name="electronic" >
   <i type="string" name="PREC">accura</i>
   <i name="ENMAX">    300.00000000</i>
   <i name="ENAUG">    322.06900000</i>
   <i name="EDIFF">      0.00000001</i>
   <i type="int" name="IALGO">    38</i>
   <i type="int" name="IWAVPR">    10</i>
   <i type="int" name="NBANDS">   164</i>
   <i name="NELECT">    256.00000000</i>
   <i type="int" name="TURBO">     0</i>
   <i type="int" name="IRESTART">     0</i>
   <i type="int" name="NREBOOT">     0</i>
   <i type="int" name="NMIN">     0</i>
   <i name="EREF">      0.00000000</i>
   <separator name="electronic smearing" >
    <i type="int" name="ISMEAR">     0</i>
    <i name="SIGMA">      0.05000000</i>
    <i name="KSPACING">      0.50000000</i>
    <i type="logical" name="KGAMMA"> T  </i>
   </separator>
   <separator name="electronic projectors" >
    <i type="logical" name="LREAL"> F  </i>
    <v name="ROPT">      0.00000000</v>
    <i type="int" name="LMAXPAW">  -100</i>
    <i type="int" name="LMAXMIX">     2</i>
    <i type="logical" name="NLSPLINE"> F  </i>
   </separator>
   <separator name="electronic startup" >
    <i type="int" name="ISTART">     0</i>
    <i type="int" name="ICHARG">     2</i>
    <i type="int" name="INIWAV">     1</i>
   </separator>
   <separator name="electronic spin" >
    <i type="int" name="ISPIN">     1</i>
    <i type="logical" name="LNONCOLLINEAR"> F  </i>
    <v name="MAGMOM">      1.00000000      1.00000000      1.00000000      1.00000000      1.00000000      1.00000000      1.00000000      1.00000000      1.00000000      1.00000000      1.00000000      1.00000000      1.00000000      1.00000000      1.00000000      1.00000000      1.00000000      1.00000000      1.00000000      1.00000000
      1.00000000      1.00000000      1.00000000      1.00000000      1.00000000      1.00000000      1.00000000      1.00000000      1.00000000      1.00000000      1.00000000      1.00000000      1.00000000      1.00000000      1.00000000      1.00000000      1.00000000      1.00000000      1.00000000      1.00000000
      1.00000000      1.00000000      1.00000000      1.00000000      1.00000000      1.00000000      1.00000000      1.00000000      1.00000000      1.00000000      1.00000000      1.00000000      1.00000000      1.00000000      1.00000000      1.00000000      1.00000000      1.00000000      1.00000000      1.00000000
      1.00000000      1.00000000      1.00000000      1.00000000</v>
    <i name="NUPDOWN">     -1.00000000</i>
    <i type="logical" name="LSORBIT"> F  </i>
    <v name="SAXIS">      0.00000000      0.00000000      1.00000000</v>
    <i type="logical" name="LSPIRAL"> F  </i>
    <v name="QSPIRAL">      0.00000000      0.00000000      0.00000000</v>
    <i type="logical" name="LZEROZ"> F  </i>
   </separator>
   <separator name="electronic exchange-correlation" >
    <i type="logical" name="LASPH"> F  </i>
    <i type="logical" name="LMETAGGA"> F  </i>
   </separator>
   <separator name="electronic convergence" >
    <i type="int" name="NELM">    60</i>
    <i type="int" name="NELMDL">    -5</i>
    <i type="int" name="NELMIN">     5</i>
    <i name="ENINI">    300.00000000</i>
    <separator name="electronic convergence detail" >
     <i type="logical" name="LDIAG"> T  </i>
     <i type="logical" name="LSUBROT"> F  </i>
     <i name="WEIMIN">      0.00000000</i>
     <i name="EBREAK">      0.00000000</i>
     <i name="DEPER">      0.30000000</i>
     <i type="int" name="NRMM">     4</i>
     <i name="TIME">      0.40000000</i>
    </separator>
   </separator>
   <separator name="electronic mixer" >
    <i name="AMIX">      0.40000000</i>
    <i name="BMIX">      1.00000000</i>
    <i name="AMIN">      0.10000000</i>
    <i name="AMIX_MAG">      1.60000000</i>
    <i name="BMIX_MAG">      1.00000000</i>
    <separator name="electronic mixer details" >
     <i type="int" name="IMIX">     4</i>
     <i type="logical" name="MIXFIRST"> F  </i>
     <i type="int" name="MAXMIX">   -45</i>
     <i name="WC">    100.00000000</i>
     <i type="int" name="INIMIX">     1</i>
     <i type="int" name="MIXPRE">     1</i>
     <i type="int" name="MREMOVE">     5</i>
    </separator>
   </separator>
   <separator name="electronic dipolcorrection" >
    <i type="logical" name="LDIPOL"> F  </i>
    <i type="logical" name="LMONO"> F  </i>
    <i type="int" name="IDIPOL">     0</i>
    <i name="EPSILON">      1.00000000</i>
    <v name="DIPOL">   -100.00000000   -100.00000000   -100.00000000</v>
    <i name="EFIELD">      0.00000000</i>
   </separator>
  </separator>
  <separator name="grids" >
   <i type="int" name="NGX">    64</i>
   <i type="int" name="NGY">    64</i>
   <i type="int" name="NGZ">    64</i>
   <i type="int" name="NGXF">   128</i>
   <i type="int" name="NGYF">   128</i>
   <i type="int" name="NGZF">   128</i>
   <i type="logical" name="ADDGRID"> T  </i>
  </separator>
  <separator name="ionic" >
   <i type="int" name="NSW">     0</i>
   <i type="int" name="IBRION">    -1</i>
   <i type="int" name="ISIF">     2</i>
   <i name="PSTRESS">      0.00000000</i>
   <i name="EDIFFG">      0.00000010</i>
   <i type="int" name="NFREE">     0</i>
   <i name="POTIM">      0.50000000</i>
   <i name="SMASS">     -3.00000000</i>
   <i name="SCALEE">      1.00000000</i>
  </separator>
  <separator name="ionic md" >
   <i name="TEBEG">      0.00010000</i>
   <i name="TEEND">      0.00010000</i>
   <i type="int" name="NBLOCK">     1</i>
   <i type="int" name="KBLOCK">     1</i>
   <i type="int" name="NPACO">   256</i>
   <i name="APACO">     16.00000000</i>
  </separator>
  <separator name="symmetry" >
   <i type="int" name="ISYM">     2</i>
   <i name="SYMPREC">      0.00001000</i>
  </separator>
  <separator name="dos" >
   <i type="logical" name="LORBIT"> F  </i>
   <v name="RWIGS">     -1.00000000</v>
   <i type="int" name="NEDOS">   301</i>
   <i name="EMIN">     10.00000000</i>
   <i name="EMAX">    -10.00000000</i>
   <i name="EFERMI">      0.00000000</i>
  </separator>
  <separator name="writing" >
   <i type="int" name="NWRITE">     2</i>
   <i type="logical" name="LWAVE"> F  </i>
   <i type="logical" name="LCHARG"> F  </i>
   <i type="logical" name="LPARD"> F  </i>
   <i type="logical" name="LVTOT"> F  </i>
   <i type="logical" name="LVHAR"> F  </i>
   <i type="logical" name="LELF"> F  </i>
   <i type="logical" name="LOPTICS"> F  </i>
   <v name="STM">      0.00000000      0.00000000      0.00000000      0.00000000      0.00000000      0.00000000      0.00000000</v>
  </separator>
  <separator name="performance" >
   <i type="int" name="NPAR">     4</i>
   <i type="int" name="NSIM">     4</i>
   <i type="int" name="NBLK">    -1</i>
   <i type="logical" name="LPLANE"> T  </i>
   <i type="logical" name="LSCALAPACK"> T  </i>
   <i type="logical" name="LSCAAWARE"> F  </i>
   <i type="logical" name="LSCALU"> F  </i>
   <i type="logical" name="LASYNC"> F  </i>
   <i type="logical" name="LORBITALREAL"> F  </i>
  </separator>
  <separator name="miscellaneous" >
   <i type="int" name="IDIOT">     3</i>
   <i type="logical" name="LMUSIC"> F  </i>
   <v name="POMASS">     28.08500000</v>
   <v name="DARWINR">      0.00000000</v>
   <v name="DARWINV">      1.00000000</v>
   <i type="logical" name="LCORR"> T  </i>
  </separator>
  <i type="logical" name="GGA_COMPAT"> T  </i>
  <i type="logical" name="LBERRY"> F  </i>
  <i type="int" name="ICORELEVEL">     0</i>
  <i type="logical" name="LDAU"> F  </i>
  <i type="int" name="I_CONSTRAINED_M">     0</i>
  <separator name="electronic exchange-correlation" >
   <i type="string" name="GGA">--</i>
   <i type="int" name="VOSKOWN">     0</i>
   <i type="logical" name="LHFCALC"> F  </i>
   <i type="string" name="PRECFOCK"></i>
   <i type="logical" name="LSYMGRAD"> F  </i>
   <i type="logical" name="LHFONE"> F  </i>
   <i type="logical" name="LRHFCALC"> F  </i>
   <i type="logical" name="LTHOMAS"> F  </i>
   <i type="logical" name="LMODELHF"> F  </i>
   <i name="ENCUT4O">     -1.00000000</i>
   <i type="int" name="EXXOEP">     0</i>
   <i type="int" name="FOURORBIT">     0</i>
   <i name="AEXX">      0.00000000</i>
   <i name="HFALPHA">      0.00000000</i>
   <i name="MCALPHA">      0.00000000</i>
   <i name="ALDAX">      1.00000000</i>
   <i name="AGGAX">      1.00000000</i>
   <i name="ALDAC">      1.00000000</i>
   <i name="AGGAC">      1.00000000</i>
   <i type="int" name="NKREDX">     1</i>
   <i type="int" name="NKREDY">     1</i>
   <i type="int" name="NKREDZ">     1</i>
   <i type="logical" name="SHIFTRED"> F  </i>
   <i type="logical" name="ODDONLY"> F  </i>
   <i type="logical" name="EVENONLY"> F  </i>
   <i type="int" name="LMAXFOCK">     0</i>
   <i type="int" name="NMAXFOCKAE">     0</i>
   <i type="logical" name="LFOCKAEDFT"> F  </i>
   <i name="HFSCREEN">      0.00000000</i>
   <i name="HFSCREENC">      0.00000000</i>
   <i type="int" name="NBANDSGWLOW">     0</i>
  </separator>
  <separator name="vdW DFT" >
   <i type="logical" name="LUSE_VDW"> F  </i>
   <i name="Zab_VDW">     -0.84910000</i>
   <i name="PARAM1">      0.12340000</i>
   <i name="PARAM2">      1.00000000</i>
   <i name="PARAM3">      0.00000000</i>
  </separator>
  <separator name="model GW" >
   <i type="int" name="MODEL_GW">     0</i>
   <i name="MODEL_EPS0">     12.24990743</i>
   <i name="MODEL_ALPHA">      1.00000000</i>
  </separator>
  <separator name="linear response parameters" >
   <i type="logical" name="LEPSILON"> F  </i>
   <i type="logical" name="LRPA"> F  </i>
   <i type="logical" name="LNABLA"> F  </i>
   <i type="logical" name="LVEL"> F  </i>
   <i type="int" name="KINTER">     0</i>
   <i name="CSHIFT">      0.10000000</i>
   <i name="OMEGAMAX">     -1.00000000</i>
   <i name="DEG_THRESHOLD">      0.00200000</i>
  </separator>
  <separator name="orbital magnetization" >
   <i type="logical" name="NUCIND"> F  </i>
   <v name="MAGPOS">      0.00000000      0.00000000      0.00000000</v>
   <i type="logical" name="LNICSALL"> T  </i>
   <i type="logical" name="ORBITALMAG"> F  </i>
   <i type="logical" name="LMAGBLOCH"> F  </i>
   <i type="logical" name="LCHIMAG"> F  </i>
   <i type="logical" name="LGAUGE"> T  </i>
   <i type="int" name="MAGATOM">     0</i>
   <v name="MAGDIPOL">      0.00000000      0.00000000      0.00000000</v>
   <v name="AVECCONST">      0.00000000      0.00000000      0.00000000</v>
  </separator>
  <separator name="response functions" >
   <i type="logical" name="LADDER"> F  </i>
   <i type="logical" name="LFXC"> F  </i>
   <i type="logical" name="LHARTREE"> T  </i>
   <i type="int" name="IBSE">     0</i>
   <v type="int" name="KPOINT">    -1     0     0     0</v>
   <i type="logical" name="LTCTE"> F  </i>
   <i type="logical" name="LTETE"> F  </i>
   <i type="logical" name="LTRIPLET"> F  </i>
   <i type="logical" name="LFXCEPS"> F  </i>
   <i type="logical" name="LFXHEG"> F  </i>
   <i type="int" name="NATURALO">     0</i>
   <i type="logical" name="L2ORDER"> F  </i>
   <i type="logical" name="LUSEW"> F  </i>
   <i name="ENCUTGW">     -2.00000000</i>
   <i name="ENCUTGWSOFT">     -2.00000000</i>
   <i name="ENCUTLF">     -1.00000000</i>
   <i type="int" name="LMAXMP2">    -1</i>
   <i name="SCISSOR">      0.00000000</i>
   <i type="int" name="NOMEGA">     0</i>
   <i type="int" name="NOMEGAR">     0</i>
   <i type="int" name="NBANDSGW">    -1</i>
   <i type="int" name="NBANDSO">    -1</i>
   <i type="int" name="NBANDSV">    -1</i>
   <i type="int" name="NELM">     1</i>
   <i type="int" name="NELMHF">     1</i>
   <i type="int" name="DIM">     3</i>
   <i type="int" name="ANTIRES">     0</i>
   <i name="OMEGAMAX">    -30.00000000</i>
   <i name="OMEGAMIN">    -30.00000000</i>
   <i name="OMEGATL">   -200.00000000</i>
   <i type="int" name="OMEGAGRID">     0</i>
   <i name="CSHIFT">     -0.10000000</i>
   <i type="logical" name="SELFENERGY"> F  </i>
   <i type="logical" name="LSPECTRAL"> F  </i>
   <i type="logical" name="LSPECTRALGW"> F  </i>
   <i type="logical" name="LSINGLES"> F  </i>
   <i type="logical" name="LFERMIGW"> F  </i>
   <i type="logical" name="ODDONLYGW"> F  </i>
   <i type="logical" name="EVENONLYGW"> F  </i>
   <i type="int" name="NKREDLFX">     1</i>
   <i type="int" name="NKREDLFY">     1</i>
   <i type="int" name="NKREDLFZ">     1</i>
   <i type="int" name="MAXMEM">  1800</i>
   <i type="int" name="TELESCOPE">     0</i>
   <i type="int" name="TAUPAR">     1</i>
   <i type="int" name="OMEGAPAR">    -1</i>
   <i name="LAMBDA">      1.00000000</i>
  </separator>
  <separator name="External order field" >
   <i name="OFIELD_KAPPA">      0.00000000</i>
   <v name="OFIELD_K">      0.00000000      0.00000000      0.00000000</v>
   <i name="OFIELD_Q6_NEAR">      0.00000000</i>
   <i name="OFIELD_Q6_FAR">      0.00000000</i>
   <i name="OFIELD_A">      0.00000000</i>
  </separator>
 </parameters>
 <atominfo>
  <atoms>      64 </atoms>
  <types>       1 </types>
  <array name="atoms" >
   <dimension dim="1">ion</dimension>
   <field type="string">element</field>
   <field type="int">atomtype</field>
   <set>
    <rc><c>Si</c><c>   1</c></rc>
    <rc><c>Si</c><c>   1</c></rc>
    <rc><c>Si</c><c>   1</c></rc>
    <rc><c>Si</c><c>   1</c></rc>
    <rc><c>Si</c><c>   1</c></rc>
    <rc><c>Si</c><c>   1</c></rc>
    <rc><c>Si</c><c>   1</c></rc>
    <rc><c>Si</c><c>   1</c></rc>
    <rc><c>Si</c><c>   1</c></rc>
    <rc><c>Si</c><c>   1</c></rc>
    <rc><c>Si</c><c>   1</c></rc>
    <rc><c>Si</c><c>   1</c></rc>
    <rc><c>Si</c><c>   1</c></rc>
    <rc><c>Si</c><c>   1</c></rc>
    <rc><c>Si</c><c>   1</c></rc>
    <rc><c>Si</c><c>   1</c></rc>
    <rc><c>Si</c><c>   1</c></rc>
    <rc><c>Si</c><c>   1</c></rc>
    <rc><c>Si</c><c>   1</c></rc>
    <rc><c>Si</c><c>   1</c></rc>
    <rc><c>Si</c><c>   1</c></rc>
    <rc><c>Si</c><c>   1</c></rc>
    <rc><c>Si</c><c>   1</c></rc>
    <rc><c>Si</c><c>   1</c></rc>
    <rc><c>Si</c><c>   1</c></rc>
    <rc><c>Si</c><c>   1</c></rc>
    <rc><c>Si</c><c>   1</c></rc>
    <rc><c>Si</c><c>   1</c></rc>
    <rc><c>Si</c><c>   1</c></rc>
    <rc><c>Si</c><c>   1</c></rc>
    <rc><c>Si</c><c>   1</c></rc>
    <rc><c>Si</c><c>   1</c></rc>
    <rc><c>Si</c><c>   1</c></rc>
    <rc><c>Si</c><c>   1</c></rc>
    <rc><c>Si</c><c>   1</c></rc>
    <rc><c>Si</c><c>   1</c></rc>
    <rc><c>Si</c><c>   1</c></rc>
    <rc><c>Si</c><c>   1</c></rc>
    <rc><c>Si</c><c>   1</c></rc>
    <rc><c>Si</c><c>   1</c></rc>
    <rc><c>Si</c><c>   1</c></rc>
    <rc><c>Si</c><c>   1</c></rc>
    <rc><c>Si</c><c>   1</c></rc>
    <rc><c>Si</c><c>   1</c></rc>
    <rc><c>Si</c><c>   1</c></rc>
    <rc><c>Si</c><c>   1</c></rc>
    <rc><c>Si</c><c>   1</c></rc>
    <rc><c>Si</c><c>   1</c></rc>
    <rc><c>Si</c><c>   1</c></rc>
    <rc><c>Si</c><c>   1</c></rc>
    <rc><c>Si</c><c>   1</c></rc>
    <rc><c>Si</c><c>   1</c></rc>
    <rc><c>Si</c><c>   1</c></rc>
    <rc><c>Si</c><c>   1</c></rc>
    <rc><c>Si</c><c>   1</c></rc>
    <rc><c>Si</c><c>   1</c></rc>
    <rc><c>Si</c><c>   1</c></rc>
    <rc><c>Si</c><c>   1</c></rc>
    <rc><c>Si</c><c>   1</c></rc>
    <rc><c>Si</c><c>   1</c></rc>
    <rc><c>Si</c><c>   1</c></rc>
    <rc><c>Si</c><c>   1</c></rc>
    <rc><c>Si</c><c>   1</c></rc>
    <rc><c>Si</c><c>   1</c></rc>
   </set>
  </array>
  <array name="atomtypes" >
   <dimension dim="1">type</dimension>
   <field type="int">atomspertype</field>
   <field type="string">element</field>
   <field>mass</field>
   <field>valence</field>
   <field type="string">pseudopotential</field>
   <set>
    <rc><c>  64</c><c>Si</c><c>     28.08500000</c><c>      4.00000000</c><c>  PAW_PBE Si 05Jan2001                  </c></rc>
   </set>
  </array>
 </atominfo>
 <structure name="initialpos" >
  <crystal>
   <varray name="basis" >
    <v>      10.93252578       0.00000000       0.00000000 </v>
    <v>       0.00000000      10.93252578       0.00000000 </v>
    <v>       0.00000000       0.00000000      10.93252578 </v>
   </varray>
   <i name="volume">   1306.65679237 </i>
   <varray name="rec_basis" >
    <v>       0.09147017       0.00000000       0.00000000 </v>
    <v>       0.00000000       0.09147017       0.00000000 </v>
    <v>       0.00000000       0.00000000       0.09147017 </v>
   </varray>
  </crystal>
  <varray name="positions" >
   <v>       0.44024411       0.43750000       0.43750000 </v>
   <v>       0.93750000       0.43750000       0.43750000 </v>
   <v>       0.43750000       0.93750000       0.44024411 </v>
   <v>       0.93750000       0.93750000       0.43750000 </v>
   <v>       0.43750000       0.43750000       0.93750000 </v>
   <v>       0.93750000       0.43750000       0.93750000 </v>
   <v>       0.43750000       0.93750000       0.93750000 </v>
   <v>       0.93750000       0.93750000       0.93750000 </v>
   <v>       0.43750000       0.18750000       0.18750000 </v>
   <v>       0.93750000       0.18750000       0.18750000 </v>
   <v>       0.43750000       0.68750000       0.18750000 </v>
   <v>       0.93750000       0.68750000       0.18750000 </v>
   <v>       0.43750000       0.18750000       0.68750000 </v>
   <v>       0.93750000       0.18750000       0.68750000 </v>
   <v>       0.43750000       0.68750000       0.68750000 </v>
   <v>       0.93750000       0.68750000       0.68750000 </v>
   <v>       0.18750000       0.43750000       0.18750000 </v>
   <v>       0.68750000       0.43750000       0.18750000 </v>
   <v>       0.18750000       0.93750000       0.18750000 </v>
   <v>       0.68750000       0.93750000       0.18750000 </v>
   <v>       0.18750000       0.43750000       0.68750000 </v>
   <v>       0.68750000       0.43750000       0.68750000 </v>
   <v>       0.18750000       0.93750000       0.68750000 </v>
   <v>       0.68750000       0.93750000       0.68750000 </v>
   <v>       0.18750000       0.18750000       0.43750000 </v>
   <v>       0.68750000       0.18750000       0.43750000 </v>
   <v>       0.18750000       0.68750000       0.43750000 </v>
   <v>       0.68750000       0.68750000       0.43750000 </v>
   <v>       0.18750000       0.18750000       0.93750000 </v>
   <v>       0.68750000       0.18750000       0.93750000 </v>
   <v>       0.18750000       0.68750000       0.93750000 </v>
   <v>       0.68750000       0.68750000       0.93750000 </v>
   <v>       0.06250000       0.06250000       0.06250000 </v>
   <v>       0.56250000       0.06250000       0.06250000 </v>
   <v>       0.06250000       0.56250000       0.06250000 </v>
   <v>       0.56250000       0.56250000       0.06250000 </v>
   <v>       0.06250000       0.06250000       0.56250000 </v>
   <v>       0.56250000       0.06250000       0.56250000 </v>
   <v>       0.06250000       0.56250000       0.56250000 </v>
   <v>       0.56250000       0.56250000       0.56250000 </v>
   <v>       0.06250000       0.31250000       0.31250000 </v>
   <v>       0.56250000       0.31250000       0.31250000 </v>
   <v>       0.06250000       0.81250000       0.31250000 </v>
   <v>       0.56250000       0.81250000       0.31250000 </v>
   <v>       0.06250000       0.31250000       0.81250000 </v>
   <v>       0.56250000       0.31250000       0.81250000 </v>
   <v>       0.06250000       0.81250000       0.81250000 </v>
   <v>       0.56250000       0.81250000       0.81250000 </v>
   <v>       0.31250000       0.06250000       0.31250000 </v>
   <v>       0.81250000       0.06250000       0.31250000 </v>
   <v>       0.31250000       0.56250000       0.31250000 </v>
   <v>       0.81250000       0.56250000       0.31250000 </v>
   <v>       0.31250000       0.06250000       0.81250000 </v>
   <v>       0.81250000       0.06250000       0.81250000 </v>
   <v>       0.31250000       0.56250000       0.81250000 </v>
   <v>       0.81250000       0.56250000       0.81250000 </v>
   <v>       0.31250000       0.31250000       0.06250000 </v>
   <v>       0.81250000       0.31250000       0.06250000 </v>
   <v>       0.31250000       0.81250000       0.06250000 </v>
   <v>       0.81250000       0.81250000       0.06250000 </v>
   <v>       0.31250000       0.31250000       0.56250000 </v>
   <v>       0.81250000       0.31250000       0.56250000 </v>
   <v>       0.31250000       0.81250000       0.56250000 </v>
   <v>       0.81250000       0.81250000       0.56250000 </v>
  </varray>
 </structure>
 <calculation>
  <scstep>
   <time name="dav">    4.14    4.14</time>
   <time name="total">    4.40    4.43</time>
   <energy>
    <i name="alphaZ">    105.52440745 </i>
    <i name="ewald">  -7265.47123806 </i>
    <i name="hartreedc">   -361.71240826 </i>
    <i name="XCdc">   -597.75714167 </i>
    <i name="pawpsdc">   5639.92317535 </i>
    <i name="pawaedc">  -4513.95313856 </i>
    <i name="eentropy">     -0.00029338 </i>
    <i name="bandstr">    857.49676122 </i>
    <i name="atom">   6596.14994790 </i>
    <i name="e_fr_energy">    460.20007200 </i>
    <i name="e_wo_entrp">    460.20036537 </i>
    <i name="e_0_energy">    460.20021869 </i>
   </energy>
  </scstep>
  <scstep>
   <time name="dav">    4.72    4.72</time>
   <time name="total">    4.72    4.73</time>
   <energy>
    <i name="e_fr_energy">   -299.20015077 </i>
    <i name="e_wo_entrp">   -299.20015077 </i>
    <i name="e_0_energy">   -299.20015077 </i>
   </energy>
  </scstep>
  <scstep>
   <time name="dav">    4.78    4.79</time>
   <time name="total">    4.78    4.79</time>
   <energy>
    <i name="e_fr_energy">   -350.89681767 </i>
    <i name="e_wo_entrp">   -350.89681767 </i>
    <i name="e_0_energy">   -350.89681767 </i>
   </energy>
  </scstep>
  <scstep>
   <time name="dav">    4.79    4.79</time>
   <time name="total">    4.79    4.82</time>
   <energy>
    <i name="e_fr_energy">   -352.26865209 </i>
    <i name="e_wo_entrp">   -352.26865209 </i>
    <i name="e_0_energy">   -352.26865209 </i>
   </energy>
  </scstep>
  <scstep>
   <time name="dav">    4.70    4.71</time>
   <time name="total">    5.00    5.03</time>
   <energy>
    <i name="e_fr_energy">   -352.31284925 </i>
    <i name="e_wo_entrp">   -352.31284925 </i>
    <i name="e_0_energy">   -352.31284925 </i>
   </energy>
  </scstep>
  <scstep>
   <time name="dav">    4.63    4.65</time>
   <time name="total">    5.20    5.22</time>
   <energy>
    <i name="e_fr_energy">   -348.58462083 </i>
    <i name="e_wo_entrp">   -348.58462083 </i>
    <i name="e_0_energy">   -348.58462083 </i>
   </energy>
  </scstep>
  <scstep>
   <time name="dav">    4.62    4.63</time>
   <time name="total">    5.20    5.21</time>
   <energy>
    <i name="e_fr_energy">   -346.87192795 </i>
    <i name="e_wo_entrp">   -346.87192795 </i>
    <i name="e_0_energy">   -346.87192795 </i>
   </energy>
  </scstep>
  <scstep>
   <time name="dav">    4.63    4.64</time>
   <time name="total">    5.19    5.26</time>
   <energy>
    <i name="e_fr_energy">   -346.89813499 </i>
    <i name="e_wo_entrp">   -346.89813499 </i>
    <i name="e_0_energy">   -346.89813499 </i>
   </energy>
  </scstep>
  <scstep>
   <time name="dav">    4.82    4.83</time>
   <time name="total">    5.39    5.41</time>
   <energy>
    <i name="e_fr_energy">   -346.90487143 </i>
    <i name="e_wo_entrp">   -346.90487143 </i>
    <i name="e_0_energy">   -346.90487143 </i>
   </energy>
  </scstep>
  <scstep>
   <time name="dav">    4.48    4.49</time>
   <time name="total">    5.05    5.07</time>
   <energy>
    <i name="e_fr_energy">   -346.90692136 </i>
    <i name="e_wo_entrp">   -346.90692136 </i>
    <i name="e_0_energy">   -346.90692136 </i>
   </energy>
  </scstep>
  <scstep>
   <time name="dav">    4.73    4.74</time>
   <time name="total">    5.29    5.30</time>
   <energy>
    <i name="e_fr_energy">   -346.90689773 </i>
    <i name="e_wo_entrp">   -346.90689773 </i>
    <i name="e_0_energy">   -346.90689773 </i>
   </energy>
  </scstep>
  <scstep>
   <time name="dav">    4.68    4.69</time>
   <time name="total">    5.23    5.26</time>
   <energy>
    <i name="e_fr_energy">   -346.90691264 </i>
    <i name="e_wo_entrp">   -346.90691264 </i>
    <i name="e_0_energy">   -346.90691264 </i>
   </energy>
  </scstep>
  <scstep>
   <time name="dav">    4.66    4.67</time>
   <time name="total">    5.25    5.27</time>
   <energy>
    <i name="e_fr_energy">   -346.90691306 </i>
    <i name="e_wo_entrp">   -346.90691306 </i>
    <i name="e_0_energy">   -346.90691306 </i>
   </energy>
  </scstep>
  <scstep>
   <time name="dav">    4.77    4.78</time>
   <time name="total">    5.34    5.35</time>
   <energy>
    <i name="e_fr_energy">   -346.90691366 </i>
    <i name="e_wo_entrp">   -346.90691366 </i>
    <i name="e_0_energy">   -346.90691366 </i>
   </energy>
  </scstep>
  <scstep>
   <time name="dav">    4.03    4.04</time>
   <time name="total">    4.59    4.61</time>
   <energy>
    <i name="e_fr_energy">   -346.90691341 </i>
    <i name="e_wo_entrp">   -346.90691341 </i>
    <i name="e_0_energy">   -346.90691341 </i>
   </energy>
  </scstep>
  <scstep>
   <time name="dav">    3.26    3.27</time>
   <time name="total">    3.83    3.84</time>
   <energy>
    <i name="e_fr_energy">   -346.90691349 </i>
    <i name="e_wo_entrp">   -346.90691349 </i>
    <i name="e_0_energy">   -346.90691349 </i>
   </energy>
  </scstep>
  <scstep>
   <time name="dav">    3.19    3.20</time>
   <time name="total">    3.75    3.80</time>
   <energy>
    <i name="e_fr_energy">   -346.90691347 </i>
    <i name="e_wo_entrp">   -346.90691347 </i>
    <i name="e_0_energy">   -346.90691347 </i>
   </energy>
  </scstep>
  <scstep>
   <time name="dav">    3.19    3.20</time>
   <time name="total">    3.75    3.77</time>
   <energy>
    <i name="e_fr_energy">   -346.90691349 </i>
    <i name="e_wo_entrp">   -346.90691349 </i>
    <i name="e_0_energy">   -346.90691349 </i>
   </energy>
  </scstep>
  <scstep>
   <time name="dav">    3.19    3.20</time>
   <time name="total">    3.45    3.47</time>
   <energy>
    <i name="alphaZ">    105.52440745 </i>
    <i name="ewald">  -7265.47123806 </i>
    <i name="hartreedc">   -485.14323327 </i>
    <i name="XCdc">   -577.61229034 </i>
    <i name="pawpsdc">  27883.44011952 </i>
    <i name="pawaedc"> -26764.15804837 </i>
    <i name="eentropy">      0.00000000 </i>
    <i name="bandstr">    160.36342167 </i>
    <i name="atom">   6596.14994790 </i>
    <i name="e_fr_energy">   -346.90691349 </i>
    <i name="e_wo_entrp">   -346.90691349 </i>
    <i name="e_0_energy">   -346.90691349 </i>
   </energy>
  </scstep>
  <structure>
   <crystal>
    <varray name="basis" >
     <v>      10.93252578       0.00000000       0.00000000 </v>
     <v>       0.00000000      10.93252578       0.00000000 </v>
     <v>       0.00000000       0.00000000      10.93252578 </v>
    </varray>
    <i name="volume">   1306.65679237 </i>
    <varray name="rec_basis" >
     <v>       0.09147017       0.00000000       0.00000000 </v>
     <v>       0.00000000       0.09147017       0.00000000 </v>
     <v>       0.00000000       0.00000000       0.09147017 </v>
    </varray>
   </crystal>
   <varray name="positions" >
    <v>       0.44024411       0.43750000       0.43750000 </v>
    <v>       0.93750000       0.43750000       0.43750000 </v>
    <v>       0.43750000       0.93750000       0.44024411 </v>
    <v>       0.93750000       0.93750000       0.43750000 </v>
    <v>       0.43750000       0.43750000       0.93750000 </v>
    <v>       0.93750000       0.43750000       0.93750000 </v>
    <v>       0.43750000       0.93750000       0.93750000 </v>
    <v>       0.93750000       0.93750000       0.93750000 </v>
    <v>       0.43750000       0.18750000       0.18750000 </v>
    <v>       0.93750000       0.18750000       0.18750000 </v>
    <v>       0.43750000       0.68750000       0.18750000 </v>
    <v>       0.93750000       0.68750000       0.18750000 </v>
    <v>       0.43750000       0.18750000       0.68750000 </v>
    <v>       0.93750000       0.18750000       0.68750000 </v>
    <v>       0.43750000       0.68750000       0.68750000 </v>
    <v>       0.93750000       0.68750000       0.68750000 </v>
    <v>       0.18750000       0.43750000       0.18750000 </v>
    <v>       0.68750000       0.43750000       0.18750000 </v>
    <v>       0.18750000       0.93750000       0.18750000 </v>
    <v>       0.68750000       0.93750000       0.18750000 </v>
    <v>       0.18750000       0.43750000       0.68750000 </v>
    <v>       0.68750000       0.43750000       0.68750000 </v>
    <v>       0.18750000       0.93750000       0.68750000 </v>
    <v>       0.68750000       0.93750000       0.68750000 </v>
    <v>       0.18750000       0.18750000       0.43750000 </v>
    <v>       0.68750000       0.18750000       0.43750000 </v>
    <v>       0.18750000       0.68750000       0.43750000 </v>
    <v>       0.68750000       0.68750000       0.43750000 </v>
    <v>       0.18750000       0.18750000       0.93750000 </v>
    <v>       0.68750000       0.18750000       0.93750000 </v>
    <v>       0.18750000       0.68750000       0.93750000 </v>
    <v>       0.68750000       0.68750000       0.93750000 </v>
    <v>       0.06250000       0.06250000       0.06250000 </v>
    <v>       0.56250000       0.06250000       0.06250000 </v>
    <v>       0.06250000       0.56250000       0.06250000 </v>
    <v>       0.56250000       0.56250000       0.06250000 </v>
    <v>       0.06250000       0.06250000       0.56250000 </v>
    <v>       0.56250000       0.06250000       0.56250000 </v>
    <v>       0.06250000       0.56250000       0.56250000 </v>
    <v>       0.56250000       0.56250000       0.56250000 </v>
    <v>       0.06250000       0.31250000       0.31250000 </v>
    <v>       0.56250000       0.31250000       0.31250000 </v>
    <v>       0.06250000       0.81250000       0.31250000 </v>
    <v>       0.56250000       0.81250000       0.31250000 </v>
    <v>       0.06250000       0.31250000       0.81250000 </v>
    <v>       0.56250000       0.31250000       0.81250000 </v>
    <v>       0.06250000       0.81250000       0.81250000 </v>
    <v>       0.56250000       0.81250000       0.81250000 </v>
    <v>       0.31250000       0.06250000       0.31250000 </v>
    <v>       0.81250000       0.06250000       0.31250000 </v>
    <v>       0.31250000       0.56250000       0.31250000 </v>
    <v>       0.81250000       0.56250000       0.31250000 </v>
    <v>       0.31250000       0.06250000       0.81250000 </v>
    <v>       0.81250000       0.06250000       0.81250000 </v>
    <v>       0.31250000       0.56250000       0.81250000 </v>
    <v>       0.81250000       0.56250000       0.81250000 </v>
    <v>       0.31250000       0.31250000       0.06250000 </v>
    <v>       0.81250000       0.31250000       0.06250000 </v>
    <v>       0.31250000       0.81250000       0.06250000 </v>
    <v>       0.81250000       0.81250000       0.06250000 </v>
    <v>       0.31250000       0.31250000       0.56250000 </v>
    <v>       0.81250000       0.31250000       0.56250000 </v>
    <v>       0.31250000       0.81250000       0.56250000 </v>
    <v>       0.81250000       0.81250000       0.56250000 </v>
   </varray>
  </structure>
  <varray name="forces" >
   <v>      -0.38713870       0.00002562       0.00131682 </v>
   <v>       0.00054964       0.00000117      -0.01155066 </v>
   <v>       0.00131682       0.00002562      -0.38713870 </v>
   <v>      -0.00017617       0.00000174       0.00131731 </v>
   <v>       0.00131731       0.00000174      -0.00017617 </v>
   <v>      -0.00017617       0.00000203       0.00057691 </v>
   <v>      -0.01155066       0.00000117       0.00054964 </v>
   <v>       0.00057691       0.00000203      -0.00017617 </v>
   <v>      -0.01021221      -0.00279060       0.00842089 </v>
   <v>       0.00020474       0.00208812       0.00124334 </v>
   <v>      -0.01544992       0.00822445       0.00298081 </v>
   <v>      -0.00023160      -0.00162845       0.00078388 </v>
   <v>      -0.01000465       0.00302265       0.00846617 </v>
   <v>       0.00022900      -0.00208060       0.00125494 </v>
   <v>      -0.01564862      -0.00846314       0.00303249 </v>
   <v>      -0.00025444       0.00162032       0.00079440 </v>
   <v>       0.00378566      -0.00290102       0.00658140 </v>
   <v>       0.00766406      -0.00253748      -0.00467649 </v>
   <v>       0.00658140      -0.00290102       0.00378566 </v>
   <v>      -0.00453591       0.00244363       0.00749481 </v>
   <v>       0.00749481       0.00244363      -0.00453591 </v>
   <v>       0.00395547       0.00299982       0.00670732 </v>
   <v>      -0.00467649      -0.00253748       0.00766406 </v>
   <v>       0.00670732       0.00299982       0.00395547 </v>
   <v>       0.00298081       0.00822445      -0.01544992 </v>
   <v>       0.00303249      -0.00846314      -0.01564862 </v>
   <v>       0.00842089      -0.00279060      -0.01021221 </v>
   <v>       0.00846617       0.00302265      -0.01000465 </v>
   <v>       0.00078388      -0.00162845      -0.00023160 </v>
   <v>       0.00079440       0.00162032      -0.00025444 </v>
   <v>       0.00124334       0.00208812       0.00020474 </v>
   <v>       0.00125494      -0.00208060       0.00022900 </v>
   <v>       0.00006641       0.00140737       0.00137276 </v>
   <v>       0.00712385       0.00159309       0.00040763 </v>
   <v>       0.00137276       0.00140737       0.00006641 </v>
   <v>      -0.00082139       0.00181316       0.00154244 </v>
   <v>       0.00154244       0.00181316      -0.00082139 </v>
   <v>       0.06464244       0.06703250       0.09702072 </v>
   <v>       0.00040763       0.00159309       0.00712385 </v>
   <v>       0.09702072       0.06703250       0.06464244 </v>
   <v>      -0.00094974      -0.00023688       0.00522715 </v>
   <v>       0.09455149      -0.06522550      -0.06753675 </v>
   <v>      -0.00027105       0.00064584      -0.00208607 </v>
   <v>      -0.06244043       0.06003022       0.09186785 </v>
   <v>      -0.00012774       0.00009059      -0.00113521 </v>
   <v>      -0.00218261      -0.00057231      -0.00026273 </v>
   <v>      -0.00117525      -0.00004923      -0.00009266 </v>
   <v>       0.00530770       0.00021554      -0.00096451 </v>
   <v>       0.05951954      -0.06185135       0.09431494 </v>
   <v>       0.00155160      -0.00188495      -0.00072575 </v>
   <v>       0.09431494      -0.06185135       0.05951954 </v>
   <v>       0.00040081      -0.00158242       0.00703896 </v>
   <v>       0.00703896      -0.00158242       0.00040081 </v>
   <v>       0.00010302      -0.00145393       0.00140806 </v>
   <v>      -0.00072575      -0.00188495       0.00155160 </v>
   <v>       0.00140806      -0.00145393       0.00010302 </v>
   <v>      -0.00208607       0.00064584      -0.00027105 </v>
   <v>      -0.00009266      -0.00004923      -0.00117525 </v>
   <v>       0.00522715      -0.00023688      -0.00094974 </v>
   <v>      -0.00113521       0.00009059      -0.00012774 </v>
   <v>       0.09186785       0.06003022      -0.06244043 </v>
   <v>      -0.00096451       0.00021554       0.00530770 </v>
   <v>      -0.06753675      -0.06522550       0.09455149 </v>
   <v>      -0.00026273      -0.00057231      -0.00218261 </v>
  </varray>
  <varray name="stress" >
   <v>       0.00162899       0.33485076       0.00007173 </v>
   <v>       0.33485076       0.02084378       0.33485076 </v>
   <v>       0.00007173       0.33485076       0.00162899 </v>
  </varray>
  <energy>
   <i name="e_fr_energy">   -346.90691349 </i>
   <i name="e_wo_entrp">   -346.90691349 </i>
   <i name="e_0_energy">      0.00000000 </i>
  </energy>
  <time name="totalsc">  100.14  100.62</time>
  <eigenvalues>
   <array>
    <dimension dim="1">band</dimension>
    <dimension dim="2">kpoint</dimension>
    <dimension dim="3">spin</dimension>
    <field>eigene</field>
    <field>occ</field>
    <set>
     <set comment="spin 1">
      <set comment="kpoint 1">
       <r>   -5.9931    1.0000 </r>
       <r>   -5.4673    1.0000 </r>
       <r>   -5.4650    1.0000 </r>
       <r>   -5.4624    1.0000 </r>
       <r>   -4.9681    1.0000 </r>
       <r>   -4.9652    1.0000 </r>
       <r>   -4.9631    1.0000 </r>
       <r>   -4.5312    1.0000 </r>
       <r>   -4.4347    1.0000 </r>
       <r>   -4.4320    1.0000 </r>
       <r>   -4.4297    1.0000 </r>
       <r>   -4.0272    1.0000 </r>
       <r>   -4.0189    1.0000 </r>
       <r>   -4.0166    1.0000 </r>
       <r>   -4.0137    1.0000 </r>
       <r>   -4.0130    1.0000 </r>
       <r>   -4.0120    1.0000 </r>
       <r>   -3.8288    1.0000 </r>
       <r>   -3.8244    1.0000 </r>
       <r>   -3.8217    1.0000 </r>
       <r>   -3.3305    1.0000 </r>
       <r>   -3.3247    1.0000 </r>
       <r>   -3.3245    1.0000 </r>
       <r>   -2.9633    1.0000 </r>
       <r>   -2.9591    1.0000 </r>
       <r>   -2.9562    1.0000 </r>
       <r>   -2.8003    1.0000 </r>
       <r>   -2.7936    1.0000 </r>
       <r>   -2.7910    1.0000 </r>
       <r>   -2.7880    1.0000 </r>
       <r>   -2.7878    1.0000 </r>
       <r>   -2.7861    1.0000 </r>
       <r>   -1.2572    1.0000 </r>
       <r>   -1.2532    1.0000 </r>
       <r>   -1.2487    1.0000 </r>
       <r>   -1.2449    1.0000 </r>
       <r>   -1.2446    1.0000 </r>
       <r>   -1.2420    1.0000 </r>
       <r>   -1.1533    1.0000 </r>
       <r>   -1.1508    1.0000 </r>
       <r>   -1.1466    1.0000 </r>
       <r>   -1.0336    1.0000 </r>
       <r>   -1.0320    1.0000 </r>
       <r>   -1.0272    1.0000 </r>
       <r>   -0.9558    1.0000 </r>
       <r>   -0.9501    1.0000 </r>
       <r>   -0.9465    1.0000 </r>
       <r>   -0.2481    1.0000 </r>
       <r>   -0.1661    1.0000 </r>
       <r>   -0.1658    1.0000 </r>
       <r>   -0.1602    1.0000 </r>
       <r>   -0.1553    1.0000 </r>
       <r>   -0.1548    1.0000 </r>
       <r>   -0.1500    1.0000 </r>
       <r>    0.7091    1.0000 </r>
       <r>    0.7105    1.0000 </r>
       <r>    0.7163    1.0000 </r>
       <r>    1.0447    1.0000 </r>
       <r>    1.0469    1.0000 </r>
       <r>    1.0498    1.0000 </r>
       <r>    1.6542    1.0000 </r>
       <r>    1.6546    1.0000 </r>
       <r>    1.6554    1.0000 </r>
       <r>    1.6583    1.0000 </r>
       <r>    1.6593    1.0000 </r>
       <r>    1.6602    1.0000 </r>
       <r>    1.7143    1.0000 </r>
       <r>    1.7188    1.0000 </r>
       <r>    1.7188    1.0000 </r>
       <r>    2.2633    1.0000 </r>
       <r>    2.2665    1.0000 </r>
       <r>    2.2677    1.0000 </r>
       <r>    2.3670    1.0000 </r>
       <r>    2.3693    1.0000 </r>
       <r>    2.3706    1.0000 </r>
       <r>    2.3728    1.0000 </r>
       <r>    2.3752    1.0000 </r>
       <r>    2.3773    1.0000 </r>
       <r>    2.4240    1.0000 </r>
       <r>    2.4273    1.0000 </r>
       <r>    2.4306    1.0000 </r>
       <r>    2.7292    1.0000 </r>
       <r>    2.7309    1.0000 </r>
       <r>    2.7348    1.0000 </r>
       <r>    2.7361    1.0000 </r>
       <r>    2.7379    1.0000 </r>
       <r>    2.7396    1.0000 </r>
       <r>    2.9992    1.0000 </r>
       <r>    2.9999    1.0000 </r>
       <r>    3.0024    1.0000 </r>
       <r>    3.0121    1.0000 </r>
       <r>    3.0144    1.0000 </r>
       <r>    3.0172    1.0000 </r>
       <r>    3.3576    1.0000 </r>
       <r>    3.3586    1.0000 </r>
       <r>    3.3631    1.0000 </r>
       <r>    3.3777    1.0000 </r>
       <r>    3.3827    1.0000 </r>
       <r>    3.3846    1.0000 </r>
       <r>    3.4650    1.0000 </r>
       <r>    3.4667    1.0000 </r>
       <r>    3.4715    1.0000 </r>
       <r>    3.7305    1.0000 </r>
       <r>    3.7370    1.0000 </r>
       <r>    3.7393    1.0000 </r>
       <r>    3.7399    1.0000 </r>
       <r>    3.7424    1.0000 </r>
       <r>    3.7432    1.0000 </r>
       <r>    3.7792    1.0000 </r>
       <r>    3.7807    1.0000 </r>
       <r>    3.7861    1.0000 </r>
       <r>    4.0364    1.0000 </r>
       <r>    4.0984    1.0000 </r>
       <r>    4.0995    1.0000 </r>
       <r>    4.1028    1.0000 </r>
       <r>    4.3397    1.0000 </r>
       <r>    4.3414    1.0000 </r>
       <r>    4.3475    1.0000 </r>
       <r>    4.3985    1.0000 </r>
       <r>    4.4004    1.0000 </r>
       <r>    4.4051    1.0000 </r>
       <r>    4.5618    1.0000 </r>
       <r>    4.5663    1.0000 </r>
       <r>    4.8686    1.0000 </r>
       <r>    4.8706    1.0000 </r>
       <r>    4.8788    1.0000 </r>
       <r>    5.3493    1.0000 </r>
       <r>    5.3547    1.0000 </r>
       <r>    6.5620    0.0000 </r>
       <r>    6.5660    0.0000 </r>
       <r>    6.5670    0.0000 </r>
       <r>    7.0007    0.0000 </r>
       <r>    7.0035    0.0000 </r>
       <r>    7.0113    0.0000 </r>
       <r>    7.2351    0.0000 </r>
       <r>    7.4884    0.0000 </r>
       <r>    7.4918    0.0000 </r>
       <r>    7.4967    0.0000 </r>
       <r>    7.6153    0.0000 </r>
       <r>    7.6172    0.0000 </r>
       <r>    7.6219    0.0000 </r>
       <r>    7.7776    0.0000 </r>
       <r>    7.7803    0.0000 </r>
       <r>    7.7827    0.0000 </r>
       <r>    7.8006    0.0000 </r>
       <r>    7.8010    0.0000 </r>
       <r>    7.8043    0.0000 </r>
       <r>    8.0239    0.0000 </r>
       <r>    8.0248    0.0000 </r>
       <r>    8.0273    0.0000 </r>
       <r>    8.0306    0.0000 </r>
       <r>    8.0316    0.0000 </r>
       <r>    8.0345    0.0000 </r>
       <r>    8.0839    0.0000 </r>
       <r>    8.2925    0.0000 </r>
       <r>    8.2942    0.0000 </r>
       <r>    8.2989    0.0000 </r>
       <r>    8.4941    0.0000 </r>
       <r>    8.4970    0.0000 </r>
       <r>    8.5015    0.0000 </r>
       <r>    8.5030    0.0000 </r>
       <r>    8.5103    0.0000 </r>
       <r>    8.5190    0.0000 </r>
       <r>    8.5483    0.0000 </r>
      </set>
      <set comment="kpoint 2">
       <r>   -5.9932    1.0000 </r>
       <r>   -5.4687    1.0000 </r>
       <r>   -5.4647    1.0000 </r>
       <r>   -5.4609    1.0000 </r>
       <r>   -4.9693    1.0000 </r>
       <r>   -4.9655    1.0000 </r>
       <r>   -4.9618    1.0000 </r>
       <r>   -4.5323    1.0000 </r>
       <r>   -4.4364    1.0000 </r>
       <r>   -4.4324    1.0000 </r>
       <r>   -4.4285    1.0000 </r>
       <r>   -4.0238    1.0000 </r>
       <r>   -4.0196    1.0000 </r>
       <r>   -4.0170    1.0000 </r>
       <r>   -4.0157    1.0000 </r>
       <r>   -4.0134    1.0000 </r>
       <r>   -4.0093    1.0000 </r>
       <r>   -3.8286    1.0000 </r>
       <r>   -3.8244    1.0000 </r>
       <r>   -3.8200    1.0000 </r>
       <r>   -3.3324    1.0000 </r>
       <r>   -3.3283    1.0000 </r>
       <r>   -3.3243    1.0000 </r>
       <r>   -2.9641    1.0000 </r>
       <r>   -2.9591    1.0000 </r>
       <r>   -2.9545    1.0000 </r>
       <r>   -2.7983    1.0000 </r>
       <r>   -2.7938    1.0000 </r>
       <r>   -2.7914    1.0000 </r>
       <r>   -2.7904    1.0000 </r>
       <r>   -2.7878    1.0000 </r>
       <r>   -2.7833    1.0000 </r>
       <r>   -1.2562    1.0000 </r>
       <r>   -1.2526    1.0000 </r>
       <r>   -1.2491    1.0000 </r>
       <r>   -1.2484    1.0000 </r>
       <r>   -1.2452    1.0000 </r>
       <r>   -1.2419    1.0000 </r>
       <r>   -1.1560    1.0000 </r>
       <r>   -1.1513    1.0000 </r>
       <r>   -1.1457    1.0000 </r>
       <r>   -1.0381    1.0000 </r>
       <r>   -1.0325    1.0000 </r>
       <r>   -1.0275    1.0000 </r>
       <r>   -0.9539    1.0000 </r>
       <r>   -0.9468    1.0000 </r>
       <r>   -0.9394    1.0000 </r>
       <r>   -0.2446    1.0000 </r>
       <r>   -0.1662    1.0000 </r>
       <r>   -0.1648    1.0000 </r>
       <r>   -0.1611    1.0000 </r>
       <r>   -0.1592    1.0000 </r>
       <r>   -0.1553    1.0000 </r>
       <r>   -0.1541    1.0000 </r>
       <r>    0.7082    1.0000 </r>
       <r>    0.7143    1.0000 </r>
       <r>    0.7204    1.0000 </r>
       <r>    1.0429    1.0000 </r>
       <r>    1.0472    1.0000 </r>
       <r>    1.0512    1.0000 </r>
       <r>    1.6517    1.0000 </r>
       <r>    1.6547    1.0000 </r>
       <r>    1.6561    1.0000 </r>
       <r>    1.6578    1.0000 </r>
       <r>    1.6592    1.0000 </r>
       <r>    1.6622    1.0000 </r>
       <r>    1.7138    1.0000 </r>
       <r>    1.7159    1.0000 </r>
       <r>    1.7184    1.0000 </r>
       <r>    2.2653    1.0000 </r>
       <r>    2.2677    1.0000 </r>
       <r>    2.2701    1.0000 </r>
       <r>    2.3650    1.0000 </r>
       <r>    2.3674    1.0000 </r>
       <r>    2.3700    1.0000 </r>
       <r>    2.3718    1.0000 </r>
       <r>    2.3740    1.0000 </r>
       <r>    2.3767    1.0000 </r>
       <r>    2.4212    1.0000 </r>
       <r>    2.4252    1.0000 </r>
       <r>    2.4287    1.0000 </r>
       <r>    2.7296    1.0000 </r>
       <r>    2.7323    1.0000 </r>
       <r>    2.7346    1.0000 </r>
       <r>    2.7353    1.0000 </r>
       <r>    2.7377    1.0000 </r>
       <r>    2.7402    1.0000 </r>
       <r>    2.9963    1.0000 </r>
       <r>    2.9995    1.0000 </r>
       <r>    3.0012    1.0000 </r>
       <r>    3.0098    1.0000 </r>
       <r>    3.0142    1.0000 </r>
       <r>    3.0174    1.0000 </r>
       <r>    3.3583    1.0000 </r>
       <r>    3.3619    1.0000 </r>
       <r>    3.3655    1.0000 </r>
       <r>    3.3813    1.0000 </r>
       <r>    3.3846    1.0000 </r>
       <r>    3.3875    1.0000 </r>
       <r>    3.4645    1.0000 </r>
       <r>    3.4666    1.0000 </r>
       <r>    3.4688    1.0000 </r>
       <r>    3.7334    1.0000 </r>
       <r>    3.7383    1.0000 </r>
       <r>    3.7410    1.0000 </r>
       <r>    3.7416    1.0000 </r>
       <r>    3.7442    1.0000 </r>
       <r>    3.7486    1.0000 </r>
       <r>    3.7783    1.0000 </r>
       <r>    3.7806    1.0000 </r>
       <r>    3.7834    1.0000 </r>
       <r>    4.0407    1.0000 </r>
       <r>    4.0949    1.0000 </r>
       <r>    4.0978    1.0000 </r>
       <r>    4.1011    1.0000 </r>
       <r>    4.3387    1.0000 </r>
       <r>    4.3410    1.0000 </r>
       <r>    4.3434    1.0000 </r>
       <r>    4.4000    1.0000 </r>
       <r>    4.4056    1.0000 </r>
       <r>    4.4121    1.0000 </r>
       <r>    4.5588    1.0000 </r>
       <r>    4.5670    1.0000 </r>
       <r>    4.8670    1.0000 </r>
       <r>    4.8701    1.0000 </r>
       <r>    4.8732    1.0000 </r>
       <r>    5.3451    1.0000 </r>
       <r>    5.3544    1.0000 </r>
       <r>    6.5598    0.0000 </r>
       <r>    6.5634    0.0000 </r>
       <r>    6.5670    0.0000 </r>
       <r>    7.0015    0.0000 </r>
       <r>    7.0044    0.0000 </r>
       <r>    7.0074    0.0000 </r>
       <r>    7.2337    0.0000 </r>
       <r>    7.4872    0.0000 </r>
       <r>    7.4907    0.0000 </r>
       <r>    7.4941    0.0000 </r>
       <r>    7.6153    0.0000 </r>
       <r>    7.6196    0.0000 </r>
       <r>    7.6239    0.0000 </r>
       <r>    7.7762    0.0000 </r>
       <r>    7.7799    0.0000 </r>
       <r>    7.7831    0.0000 </r>
       <r>    7.7978    0.0000 </r>
       <r>    7.8012    0.0000 </r>
       <r>    7.8050    0.0000 </r>
       <r>    8.0239    0.0000 </r>
       <r>    8.0260    0.0000 </r>
       <r>    8.0302    0.0000 </r>
       <r>    8.0310    0.0000 </r>
       <r>    8.0351    0.0000 </r>
       <r>    8.0368    0.0000 </r>
       <r>    8.0813    0.0000 </r>
       <r>    8.2927    0.0000 </r>
       <r>    8.2950    0.0000 </r>
       <r>    8.2973    0.0000 </r>
       <r>    8.4957    0.0000 </r>
       <r>    8.4966    0.0000 </r>
       <r>    8.5015    0.0000 </r>
       <r>    8.5036    0.0000 </r>
       <r>    8.5093    0.0000 </r>
       <r>    8.5212    0.0000 </r>
       <r>    8.5391    0.0000 </r>
      </set>
      <set comment="kpoint 3">
       <r>   -5.9932    1.0000 </r>
       <r>   -5.4671    1.0000 </r>
       <r>   -5.4647    1.0000 </r>
       <r>   -5.4622    1.0000 </r>
       <r>   -4.9678    1.0000 </r>
       <r>   -4.9660    1.0000 </r>
       <r>   -4.9629    1.0000 </r>
       <r>   -4.5332    1.0000 </r>
       <r>   -4.4351    1.0000 </r>
       <r>   -4.4331    1.0000 </r>
       <r>   -4.4302    1.0000 </r>
       <r>   -4.0208    1.0000 </r>
       <r>   -4.0199    1.0000 </r>
       <r>   -4.0191    1.0000 </r>
       <r>   -4.0161    1.0000 </r>
       <r>   -4.0139    1.0000 </r>
       <r>   -4.0062    1.0000 </r>
       <r>   -3.8270    1.0000 </r>
       <r>   -3.8243    1.0000 </r>
       <r>   -3.8196    1.0000 </r>
       <r>   -3.3323    1.0000 </r>
       <r>   -3.3320    1.0000 </r>
       <r>   -3.3261    1.0000 </r>
       <r>   -2.9622    1.0000 </r>
       <r>   -2.9590    1.0000 </r>
       <r>   -2.9554    1.0000 </r>
       <r>   -2.7957    1.0000 </r>
       <r>   -2.7938    1.0000 </r>
       <r>   -2.7937    1.0000 </r>
       <r>   -2.7908    1.0000 </r>
       <r>   -2.7880    1.0000 </r>
       <r>   -2.7811    1.0000 </r>
       <r>   -1.2562    1.0000 </r>
       <r>   -1.2531    1.0000 </r>
       <r>   -1.2528    1.0000 </r>
       <r>   -1.2486    1.0000 </r>
       <r>   -1.2443    1.0000 </r>
       <r>   -1.2412    1.0000 </r>
       <r>   -1.1550    1.0000 </r>
       <r>   -1.1514    1.0000 </r>
       <r>   -1.1492    1.0000 </r>
       <r>   -1.0385    1.0000 </r>
       <r>   -1.0323    1.0000 </r>
       <r>   -1.0319    1.0000 </r>
       <r>   -0.9471    1.0000 </r>
       <r>   -0.9431    1.0000 </r>
       <r>   -0.9377    1.0000 </r>
       <r>   -0.2411    1.0000 </r>
       <r>   -0.1699    1.0000 </r>
       <r>   -0.1655    1.0000 </r>
       <r>   -0.1648    1.0000 </r>
       <r>   -0.1602    1.0000 </r>
       <r>   -0.1544    1.0000 </r>
       <r>   -0.1543    1.0000 </r>
       <r>    0.7122    1.0000 </r>
       <r>    0.7181    1.0000 </r>
       <r>    0.7194    1.0000 </r>
       <r>    1.0444    1.0000 </r>
       <r>    1.0473    1.0000 </r>
       <r>    1.0494    1.0000 </r>
       <r>    1.6539    1.0000 </r>
       <r>    1.6539    1.0000 </r>
       <r>    1.6558    1.0000 </r>
       <r>    1.6584    1.0000 </r>
       <r>    1.6592    1.0000 </r>
       <r>    1.6594    1.0000 </r>
       <r>    1.7132    1.0000 </r>
       <r>    1.7133    1.0000 </r>
       <r>    1.7189    1.0000 </r>
       <r>    2.2678    1.0000 </r>
       <r>    2.2688    1.0000 </r>
       <r>    2.2719    1.0000 </r>
       <r>    2.3647    1.0000 </r>
       <r>    2.3661    1.0000 </r>
       <r>    2.3687    1.0000 </r>
       <r>    2.3703    1.0000 </r>
       <r>    2.3728    1.0000 </r>
       <r>    2.3745    1.0000 </r>
       <r>    2.4199    1.0000 </r>
       <r>    2.4229    1.0000 </r>
       <r>    2.4262    1.0000 </r>
       <r>    2.7304    1.0000 </r>
       <r>    2.7320    1.0000 </r>
       <r>    2.7337    1.0000 </r>
       <r>    2.7350    1.0000 </r>
       <r>    2.7388    1.0000 </r>
       <r>    2.7406    1.0000 </r>
       <r>    2.9965    1.0000 </r>
       <r>    2.9987    1.0000 </r>
       <r>    2.9992    1.0000 </r>
       <r>    3.0097    1.0000 </r>
       <r>    3.0122    1.0000 </r>
       <r>    3.0150    1.0000 </r>
       <r>    3.3612    1.0000 </r>
       <r>    3.3632    1.0000 </r>
       <r>    3.3665    1.0000 </r>
       <r>    3.3838    1.0000 </r>
       <r>    3.3856    1.0000 </r>
       <r>    3.3931    1.0000 </r>
       <r>    3.4618    1.0000 </r>
       <r>    3.4663    1.0000 </r>
       <r>    3.4684    1.0000 </r>
       <r>    3.7393    1.0000 </r>
       <r>    3.7403    1.0000 </r>
       <r>    3.7428    1.0000 </r>
       <r>    3.7429    1.0000 </r>
       <r>    3.7457    1.0000 </r>
       <r>    3.7521    1.0000 </r>
       <r>    3.7749    1.0000 </r>
       <r>    3.7804    1.0000 </r>
       <r>    3.7835    1.0000 </r>
       <r>    4.0441    1.0000 </r>
       <r>    4.0932    1.0000 </r>
       <r>    4.0969    1.0000 </r>
       <r>    4.0974    1.0000 </r>
       <r>    4.3349    1.0000 </r>
       <r>    4.3404    1.0000 </r>
       <r>    4.3420    1.0000 </r>
       <r>    4.4062    1.0000 </r>
       <r>    4.4112    1.0000 </r>
       <r>    4.4140    1.0000 </r>
       <r>    4.5593    1.0000 </r>
       <r>    4.5642    1.0000 </r>
       <r>    4.8616    1.0000 </r>
       <r>    4.8692    1.0000 </r>
       <r>    4.8715    1.0000 </r>
       <r>    5.3448    1.0000 </r>
       <r>    5.3501    1.0000 </r>
       <r>    6.5599    0.0000 </r>
       <r>    6.5606    0.0000 </r>
       <r>    6.5649    0.0000 </r>
       <r>    6.9976    0.0000 </r>
       <r>    7.0054    0.0000 </r>
       <r>    7.0082    0.0000 </r>
       <r>    7.2323    0.0000 </r>
       <r>    7.4844    0.0000 </r>
       <r>    7.4899    0.0000 </r>
       <r>    7.4932    0.0000 </r>
       <r>    7.6172    0.0000 </r>
       <r>    7.6214    0.0000 </r>
       <r>    7.6239    0.0000 </r>
       <r>    7.7766    0.0000 </r>
       <r>    7.7792    0.0000 </r>
       <r>    7.7821    0.0000 </r>
       <r>    7.7980    0.0000 </r>
       <r>    7.8012    0.0000 </r>
       <r>    7.8025    0.0000 </r>
       <r>    8.0258    0.0000 </r>
       <r>    8.0296    0.0000 </r>
       <r>    8.0307    0.0000 </r>
       <r>    8.0337    0.0000 </r>
       <r>    8.0362    0.0000 </r>
       <r>    8.0372    0.0000 </r>
       <r>    8.0794    0.0000 </r>
       <r>    8.2910    0.0000 </r>
       <r>    8.2957    0.0000 </r>
       <r>    8.2975    0.0000 </r>
       <r>    8.4931    0.0000 </r>
       <r>    8.5005    0.0000 </r>
       <r>    8.5018    0.0000 </r>
       <r>    8.5030    0.0000 </r>
       <r>    8.5085    0.0000 </r>
       <r>    8.5197    0.0000 </r>
       <r>    8.5417    0.0000 </r>
      </set>
     </set>
    </set>
   </array>
  </eigenvalues>
  <separator name="orbital magnetization" >
   <v name="MAGDIPOLOUT">      0.00000000      0.00000000      0.00000000</v>
  </separator>
  <dos>
   <i name="efermi">      5.59970253 </i>
   <total>
    <array>
     <dimension dim="1">gridpoints</dimension>
     <dimension dim="2">spin</dimension>
     <field>energy</field>
     <field>total</field>
     <field>integrated</field>
     <set>
      <set comment="spin 1">
       <r>    -6.7203     0.0000     0.0000 </r>
       <r>    -6.6670     0.0000     0.0000 </r>
       <r>    -6.6137     0.0000     0.0000 </r>
       <r>    -6.5603     0.0000     0.0000 </r>
       <r>    -6.5070     0.0000     0.0000 </r>
       <r>    -6.4537     0.0000     0.0000 </r>
       <r>    -6.4004     0.0000     0.0000 </r>
       <r>    -6.3471     0.0000     0.0000 </r>
       <r>    -6.2938     0.0000     0.0000 </r>
       <r>    -6.2404     0.0000     0.0000 </r>
       <r>    -6.1871     0.0000     0.0000 </r>
       <r>    -6.1338     0.0013     0.0001 </r>
       <r>    -6.0805     0.2524     0.0135 </r>
       <r>    -6.0272     6.0537     0.3363 </r>
       <r>    -5.9738    20.2374     1.4153 </r>
       <r>    -5.9205    10.2167     1.9601 </r>
       <r>    -5.8672     0.7416     1.9996 </r>
       <r>    -5.8139     0.0069     2.0000 </r>
       <r>    -5.7606     0.0000     2.0000 </r>
       <r>    -5.7072     0.0000     2.0000 </r>
       <r>    -5.6539     0.0000     2.0000 </r>
       <r>    -5.6006     0.0072     2.0004 </r>
       <r>    -5.5473     1.1147     2.0598 </r>
       <r>    -5.4940    21.9537     3.2304 </r>
       <r>    -5.4407    61.5234     6.5107 </r>
       <r>    -5.3873    26.3017     7.9131 </r>
       <r>    -5.3340     1.6170     7.9993 </r>
       <r>    -5.2807     0.0127     8.0000 </r>
       <r>    -5.2274     0.0000     8.0000 </r>
       <r>    -5.1741     0.0000     8.0000 </r>
       <r>    -5.1207     0.0007     8.0000 </r>
       <r>    -5.0674     0.2272     8.0121 </r>
       <r>    -5.0141     9.3709     8.5118 </r>
       <r>    -4.9608    52.6504    11.3191 </r>
       <r>    -4.9075    44.5709    13.6955 </r>
       <r>    -4.8541     5.6158    13.9950 </r>
       <r>    -4.8008     0.0943    14.0000 </r>
       <r>    -4.7475     0.0002    14.0000 </r>
       <r>    -4.6942     0.0001    14.0000 </r>
       <r>    -4.6409     0.0399    14.0021 </r>
       <r>    -4.5875     2.1727    14.1180 </r>
       <r>    -4.5342    15.9399    14.9679 </r>
       <r>    -4.4809    26.2687    16.3685 </r>
       <r>    -4.4276    55.4180    19.3233 </r>
       <r>    -4.3743    44.5234    21.6973 </r>
       <r>    -4.3210     5.5840    21.9950 </r>
       <r>    -4.2676     0.0935    22.0000 </r>
       <r>    -4.2143     0.0002    22.0000 </r>
       <r>    -4.1610     0.0058    22.0003 </r>
       <r>    -4.1077     1.1852    22.0635 </r>
       <r>    -4.0544    31.2357    23.7290 </r>
       <r>    -4.0010   117.7113    30.0052 </r>
       <r>    -3.9477    68.8652    33.6770 </r>
       <r>    -3.8944     8.7086    34.1414 </r>
       <r>    -3.8411    33.1648    35.9097 </r>
       <r>    -3.7878    59.6400    39.0896 </r>
       <r>    -3.7344    16.4338    39.9658 </r>
       <r>    -3.6811     0.6375    39.9998 </r>
       <r>    -3.6278     0.0031    40.0000 </r>
       <r>    -3.5745     0.0000    40.0000 </r>
       <r>    -3.5212     0.0000    40.0000 </r>
       <r>    -3.4678     0.0048    40.0003 </r>
       <r>    -3.4145     0.8520    40.0457 </r>
       <r>    -3.3612    19.1059    41.0644 </r>
       <r>    -3.3079    60.8068    44.3065 </r>
       <r>    -3.2546    29.6379    45.8868 </r>
       <r>    -3.2013     2.1036    45.9990 </r>
       <r>    -3.1479     0.0194    46.0000 </r>
       <r>    -3.0946     0.0078    46.0004 </r>
       <r>    -3.0413     1.1632    46.0624 </r>
       <r>    -2.9880    22.3334    47.2532 </r>
       <r>    -2.9347    61.4758    50.5310 </r>
       <r>    -2.8813    27.2088    51.9818 </r>
       <r>    -2.8280    33.7559    53.7816 </r>
       <r>    -2.7747   118.3485    60.0918 </r>
       <r>    -2.7214    67.4919    63.6904 </r>
       <r>    -2.6681     5.7408    63.9965 </r>
       <r>    -2.6147     0.0651    64.0000 </r>
       <r>    -2.5614     0.0001    64.0000 </r>
       <r>    -2.5081     0.0000    64.0000 </r>
       <r>    -2.4548     0.0000    64.0000 </r>
       <r>    -2.4015     0.0000    64.0000 </r>
       <r>    -2.3482     0.0000    64.0000 </r>
       <r>    -2.2948     0.0000    64.0000 </r>
       <r>    -2.2415     0.0000    64.0000 </r>
       <r>    -2.1882     0.0000    64.0000 </r>
       <r>    -2.1349     0.0000    64.0000 </r>
       <r>    -2.0816     0.0000    64.0000 </r>
       <r>    -2.0282     0.0000    64.0000 </r>
       <r>    -1.9749     0.0000    64.0000 </r>
       <r>    -1.9216     0.0000    64.0000 </r>
       <r>    -1.8683     0.0000    64.0000 </r>
       <r>    -1.8150     0.0000    64.0000 </r>
       <r>    -1.7616     0.0000    64.0000 </r>
       <r>    -1.7083     0.0000    64.0000 </r>
       <r>    -1.6550     0.0000    64.0000 </r>
       <r>    -1.6017     0.0000    64.0000 </r>
       <r>    -1.5484     0.0000    64.0000 </r>
       <r>    -1.4950     0.0000    64.0000 </r>
       <r>    -1.4417     0.0000    64.0000 </r>
       <r>    -1.3884     0.0105    64.0006 </r>
       <r>    -1.3351     1.7643    64.0946 </r>
       <r>    -1.2818    38.4274    66.1435 </r>
       <r>    -1.2285   122.7010    72.6858 </r>
       <r>    -1.1751    85.7987    77.2605 </r>
       <r>    -1.1218    66.4215    80.8020 </r>
       <r>    -1.0685    39.0102    82.8820 </r>
       <r>    -1.0152    64.0590    86.2976 </r>
       <r>    -0.9619    67.1307    89.8769 </r>
       <r>    -0.9085    61.1639    93.1381 </r>
       <r>    -0.8552    15.5651    93.9680 </r>
       <r>    -0.8019     0.5965    93.9998 </r>
       <r>    -0.7486     0.0030    94.0000 </r>
       <r>    -0.6953     0.0000    94.0000 </r>
       <r>    -0.6419     0.0000    94.0000 </r>
       <r>    -0.5886     0.0000    94.0000 </r>
       <r>    -0.5353     0.0000    94.0000 </r>
       <r>    -0.4820     0.0000    94.0000 </r>
       <r>    -0.4287     0.0000    94.0000 </r>
       <r>    -0.3754     0.0042    94.0002 </r>
       <r>    -0.3220     0.5383    94.0289 </r>
       <r>    -0.2687     9.0306    94.5104 </r>
       <r>    -0.2154    33.9805    96.3222 </r>
       <r>    -0.1621   101.1850   101.7173 </r>
       <r>    -0.1088   100.8479   107.0944 </r>
       <r>    -0.0554    16.6004   107.9795 </r>
       <r>    -0.0021     0.3828   107.9999 </r>
       <r>     0.0512     0.0011   108.0000 </r>
       <r>     0.1045     0.0000   108.0000 </r>
       <r>     0.1578     0.0000   108.0000 </r>
       <r>     0.2112     0.0000   108.0000 </r>
       <r>     0.2645     0.0000   108.0000 </r>
       <r>     0.3178     0.0000   108.0000 </r>
       <r>     0.3711     0.0000   108.0000 </r>
       <r>     0.4244     0.0000   108.0000 </r>
       <r>     0.4778     0.0000   108.0000 </r>
       <r>     0.5311     0.0000   108.0000 </r>
       <r>     0.5844     0.0150   108.0008 </r>
       <r>     0.6377     1.7661   108.0950 </r>
       <r>     0.6910    27.1468   109.5424 </r>
       <r>     0.7443    61.1644   112.8036 </r>
       <r>     0.7977    21.3534   113.9422 </r>
       <r>     0.8510     1.0776   113.9996 </r>
       <r>     0.9043     0.0102   114.0002 </r>
       <r>     0.9576     0.6525   114.0350 </r>
       <r>     1.0109    16.6818   114.9244 </r>
       <r>     1.0643    59.8431   118.1152 </r>
       <r>     1.1176    32.7127   119.8594 </r>
       <r>     1.1709     2.6100   119.9986 </r>
       <r>     1.2242     0.0271   120.0000 </r>
       <r>     1.2775     0.0000   120.0000 </r>
       <r>     1.3309     0.0000   120.0000 </r>
       <r>     1.3842     0.0000   120.0000 </r>
       <r>     1.4375     0.0000   120.0000 </r>
       <r>     1.4908     0.0003   120.0000 </r>
       <r>     1.5441     0.1657   120.0088 </r>
       <r>     1.5974    10.4161   120.5642 </r>
       <r>     1.6508    90.1173   125.3692 </r>
       <r>     1.7041   144.9950   133.1002 </r>
       <r>     1.7574    77.6482   137.2403 </r>
       <r>     1.8107    13.8200   137.9772 </r>
       <r>     1.8640     0.4268   137.9999 </r>
       <r>     1.9174     0.0017   138.0000 </r>
       <r>     1.9707     0.0000   138.0000 </r>
       <r>     2.0240     0.0000   138.0000 </r>
       <r>     2.0773     0.0000   138.0000 </r>
       <r>     2.1306     0.0061   138.0003 </r>
       <r>     2.1840     1.0110   138.0542 </r>
       <r>     2.2373    20.9615   139.1719 </r>
       <r>     2.2906    64.1054   142.5899 </r>
       <r>     2.3439    76.5243   146.6701 </r>
       <r>     2.3972   147.8477   154.5532 </r>
       <r>     2.4506   110.2278   160.4304 </r>
       <r>     2.5039    27.9266   161.9194 </r>
       <r>     2.5572     1.4999   161.9994 </r>
       <r>     2.6105     0.0631   162.0028 </r>
       <r>     2.6638     5.0532   162.2722 </r>
       <r>     2.7171    64.2848   165.6998 </r>
       <r>     2.7705   119.9617   172.0960 </r>
       <r>     2.8238    34.3141   173.9256 </r>
       <r>     2.8771     1.4265   174.0017 </r>
       <r>     2.9304     3.9775   174.2138 </r>
       <r>     2.9837    55.8132   177.1897 </r>
       <r>     3.0371   120.6413   183.6221 </r>
       <r>     3.0904    42.3257   185.8789 </r>
       <r>     3.1437     2.2553   185.9991 </r>
       <r>     3.1970     0.0164   186.0000 </r>
       <r>     3.2503     0.1033   186.0055 </r>
       <r>     3.3037     6.8814   186.3724 </r>
       <r>     3.3570    67.9749   189.9968 </r>
       <r>     3.4103   120.3938   196.4160 </r>
       <r>     3.4636    80.4636   200.7063 </r>
       <r>     3.5169    52.9988   203.5321 </r>
       <r>     3.5703     8.5809   203.9896 </r>
       <r>     3.6236     0.3040   204.0059 </r>
       <r>     3.6769     8.1069   204.4381 </r>
       <r>     3.7302    85.6463   209.0047 </r>
       <r>     3.7835   164.3719   217.7688 </r>
       <r>     3.8368    72.1111   221.6137 </r>
       <r>     3.8902     7.1272   221.9937 </r>
       <r>     3.9435     0.2353   222.0063 </r>
       <r>     3.9968     4.2138   222.2309 </r>
       <r>     4.0501    28.4048   223.7454 </r>
       <r>     4.1034    66.5019   227.2913 </r>
       <r>     4.1568    45.3032   229.7068 </r>
       <r>     4.2101     5.4237   229.9960 </r>
       <r>     4.2634     1.6948   230.0863 </r>
       <r>     4.3167    26.8610   231.5185 </r>
       <r>     4.3700    78.5571   235.7071 </r>
       <r>     4.4234    81.7009   240.0633 </r>
       <r>     4.4767    34.2026   241.8870 </r>
       <r>     4.5300    15.3800   242.7070 </r>
       <r>     4.5833    40.5449   244.8688 </r>
       <r>     4.6366    19.7924   245.9241 </r>
       <r>     4.6899     1.4101   245.9993 </r>
       <r>     4.7433     0.0336   246.0011 </r>
       <r>     4.7966     2.1663   246.1166 </r>
       <r>     4.8499    29.9263   247.7122 </r>
       <r>     4.9032    60.6386   250.9454 </r>
       <r>     4.9565    18.9292   251.9547 </r>
       <r>     5.0099     0.8445   251.9997 </r>
       <r>     5.0632     0.0048   252.0000 </r>
       <r>     5.1165     0.0000   252.0000 </r>
       <r>     5.1698     0.0000   252.0000 </r>
       <r>     5.2231     0.0141   252.0008 </r>
       <r>     5.2765     1.4697   252.0791 </r>
       <r>     5.3298    20.0944   253.1505 </r>
       <r>     5.3831    40.3720   255.3031 </r>
       <r>     5.4364    12.5126   255.9703 </r>
       <r>     5.4897     0.5544   255.9998 </r>
       <r>     5.5431     0.0031   256.0000 </r>
       <r>     5.5964     0.0000   256.0000 </r>
       <r>     5.6497     0.0000   256.0000 </r>
       <r>     5.7030     0.0000   256.0000 </r>
       <r>     5.7563     0.0000   256.0000 </r>
       <r>     5.8096     0.0000   256.0000 </r>
       <r>     5.8630     0.0000   256.0000 </r>
       <r>     5.9163     0.0000   256.0000 </r>
       <r>     5.9696     0.0000   256.0000 </r>
       <r>     6.0229     0.0000   256.0000 </r>
       <r>     6.0762     0.0000   256.0000 </r>
       <r>     6.1296     0.0000   256.0000 </r>
       <r>     6.1829     0.0000   256.0000 </r>
       <r>     6.2362     0.0000   256.0000 </r>
       <r>     6.2895     0.0000   256.0000 </r>
       <r>     6.3428     0.0000   256.0000 </r>
       <r>     6.3962     0.0001   256.0000 </r>
       <r>     6.4495     0.0741   256.0040 </r>
       <r>     6.5028     4.8530   256.2627 </r>
       <r>     6.5561    42.1953   258.5125 </r>
       <r>     6.6094    54.4798   261.4173 </r>
       <r>     6.6627    10.6419   261.9847 </r>
       <r>     6.7161     0.2853   261.9999 </r>
       <r>     6.7694     0.0009   262.0000 </r>
       <r>     6.8227     0.0000   262.0000 </r>
       <r>     6.8760     0.0170   262.0009 </r>
       <r>     6.9293     1.9309   262.1039 </r>
       <r>     6.9827    28.4453   263.6205 </r>
       <r>     7.0360    61.0535   266.8758 </r>
       <r>     7.0893    20.1311   267.9492 </r>
       <r>     7.1426     1.1346   268.0097 </r>
       <r>     7.1959     5.1722   268.2855 </r>
       <r>     7.2493    19.7704   269.3396 </r>
       <r>     7.3026    11.4187   269.9484 </r>
       <r>     7.3559     0.9648   269.9999 </r>
       <r>     7.4092     1.2268   270.0653 </r>
       <r>     7.4625    22.8400   271.2831 </r>
       <r>     7.5159    61.7187   274.5739 </r>
       <r>     7.5692    33.9950   276.3865 </r>
       <r>     7.6225    52.7177   279.1973 </r>
       <r>     7.6758    46.4121   281.6720 </r>
       <r>     7.7291    17.0217   282.5795 </r>
       <r>     7.7824    82.3047   286.9679 </r>
       <r>     7.8358   106.8617   292.6657 </r>
       <r>     7.8891    24.1726   293.9545 </r>
       <r>     7.9424     2.3600   294.0804 </r>
       <r>     7.9957    35.8188   295.9902 </r>
       <r>     8.0490   126.6646   302.7438 </r>
       <r>     8.1024    83.2557   307.1829 </r>
       <r>     8.1557    14.6039   307.9616 </r>
       <r>     8.2090     1.5723   308.0454 </r>
       <r>     8.2623    19.2167   309.0700 </r>
       <r>     8.3156    60.9609   312.3204 </r>
       <r>     8.3690    29.4496   313.8906 </r>
       <r>     8.4223     4.6742   314.1398 </r>
       <r>     8.4756    46.6222   316.6257 </r>
       <r>     8.5289   132.7685   323.7048 </r>
       <r>     8.5822    71.9976   327.5436 </r>
       <r>     8.6355     8.3615   327.9894 </r>
       <r>     8.6889     0.1975   328.0000 </r>
       <r>     8.7422     0.0007   328.0000 </r>
       <r>     8.7955     0.0000   328.0000 </r>
       <r>     8.8488     0.0000   328.0000 </r>
       <r>     8.9021     0.0000   328.0000 </r>
       <r>     8.9555     0.0000   328.0000 </r>
       <r>     9.0088     0.0000   328.0000 </r>
       <r>     9.0621     0.0000   328.0000 </r>
       <r>     9.1154     0.0000   328.0000 </r>
       <r>     9.1687     0.0000   328.0000 </r>
       <r>     9.2221     0.0000   328.0000 </r>
       <r>     9.2754     0.0000   328.0000 </r>
      </set>
     </set>
    </array>
   </total>
  </dos>
 </calculation>
 <structure name="finalpos" >
  <crystal>
   <varray name="basis" >
    <v>      10.93252578       0.00000000       0.00000000 </v>
    <v>       0.00000000      10.93252578       0.00000000 </v>
    <v>       0.00000000       0.00000000      10.93252578 </v>
   </varray>
   <i name="volume">   1306.65679237 </i>
   <varray name="rec_basis" >
    <v>       0.09147017       0.00000000       0.00000000 </v>
    <v>       0.00000000       0.09147017       0.00000000 </v>
    <v>       0.00000000       0.00000000       0.09147017 </v>
   </varray>
  </crystal>
  <varray name="positions" >
   <v>       0.44024411       0.43750000       0.43750000 </v>
   <v>       0.93750000       0.43750000       0.43750000 </v>
   <v>       0.43750000       0.93750000       0.44024411 </v>
   <v>       0.93750000       0.93750000       0.43750000 </v>
   <v>       0.43750000       0.43750000       0.93750000 </v>
   <v>       0.93750000       0.43750000       0.93750000 </v>
   <v>       0.43750000       0.93750000       0.93750000 </v>
   <v>       0.93750000       0.93750000       0.93750000 </v>
   <v>       0.43750000       0.18750000       0.18750000 </v>
   <v>       0.93750000       0.18750000       0.18750000 </v>
   <v>       0.43750000       0.68750000       0.18750000 </v>
   <v>       0.93750000       0.68750000       0.18750000 </v>
   <v>       0.43750000       0.18750000       0.68750000 </v>
   <v>       0.93750000       0.18750000       0.68750000 </v>
   <v>       0.43750000       0.68750000       0.68750000 </v>
   <v>       0.93750000       0.68750000       0.68750000 </v>
   <v>       0.18750000       0.43750000       0.18750000 </v>
   <v>       0.68750000       0.43750000       0.18750000 </v>
   <v>       0.18750000       0.93750000       0.18750000 </v>
   <v>       0.68750000       0.93750000       0.18750000 </v>
   <v>       0.18750000       0.43750000       0.68750000 </v>
   <v>       0.68750000       0.43750000       0.68750000 </v>
   <v>       0.18750000       0.93750000       0.68750000 </v>
   <v>       0.68750000       0.93750000       0.68750000 </v>
   <v>       0.18750000       0.18750000       0.43750000 </v>
   <v>       0.68750000       0.18750000       0.43750000 </v>
   <v>       0.18750000       0.68750000       0.43750000 </v>
   <v>       0.68750000       0.68750000       0.43750000 </v>
   <v>       0.18750000       0.18750000       0.93750000 </v>
   <v>       0.68750000       0.18750000       0.93750000 </v>
   <v>       0.18750000       0.68750000       0.93750000 </v>
   <v>       0.68750000       0.68750000       0.93750000 </v>
   <v>       0.06250000       0.06250000       0.06250000 </v>
   <v>       0.56250000       0.06250000       0.06250000 </v>
   <v>       0.06250000       0.56250000       0.06250000 </v>
   <v>       0.56250000       0.56250000       0.06250000 </v>
   <v>       0.06250000       0.06250000       0.56250000 </v>
   <v>       0.56250000       0.06250000       0.56250000 </v>
   <v>       0.06250000       0.56250000       0.56250000 </v>
   <v>       0.56250000       0.56250000       0.56250000 </v>
   <v>       0.06250000       0.31250000       0.31250000 </v>
   <v>       0.56250000       0.31250000       0.31250000 </v>
   <v>       0.06250000       0.81250000       0.31250000 </v>
   <v>       0.56250000       0.81250000       0.31250000 </v>
   <v>       0.06250000       0.31250000       0.81250000 </v>
   <v>       0.56250000       0.31250000       0.81250000 </v>
   <v>       0.06250000       0.81250000       0.81250000 </v>
   <v>       0.56250000       0.81250000       0.81250000 </v>
   <v>       0.31250000       0.06250000       0.31250000 </v>
   <v>       0.81250000       0.06250000       0.31250000 </v>
   <v>       0.31250000       0.56250000       0.31250000 </v>
   <v>       0.81250000       0.56250000       0.31250000 </v>
   <v>       0.31250000       0.06250000       0.81250000 </v>
   <v>       0.81250000       0.06250000       0.81250000 </v>
   <v>       0.31250000       0.56250000       0.81250000 </v>
   <v>       0.81250000       0.56250000       0.81250000 </v>
   <v>       0.31250000       0.31250000       0.06250000 </v>
   <v>       0.81250000       0.31250000       0.06250000 </v>
   <v>       0.31250000       0.81250000       0.06250000 </v>
   <v>       0.81250000       0.81250000       0.06250000 </v>
   <v>       0.31250000       0.31250000       0.56250000 </v>
   <v>       0.81250000       0.31250000       0.56250000 </v>
   <v>       0.31250000       0.81250000       0.56250000 </v>
   <v>       0.81250000       0.81250000       0.56250000 </v>
  </varray>
 </structure>
</modeling>
