
     Program PWSCF v.5.3.0 (svn rev. 11974) starts on  3Feb2016 at 13:47:12 

     This program is part of the open-source Quantum ESPRESSO suite
     for quantum simulation of materials; please cite
         "P. Giannozzi et al., J. Phys.:Condens. Matter 21 395502 (2009);
          URL http://www.quantum-espresso.org", 
     in publications or presentations arising from this work. More details at
     http://www.quantum-espresso.org/quote

     Parallel version (MPI), running on    16 processors
     R & G space division:  proc/nbgrp/npool/nimage =      16
     Reading input from Si.in

     Current dimensions of program PWSCF are:
     Max number of different atomic species (ntypx) = 10
     Max number of k-points (npk) =  40000
     Max angular momentum in pseudopotentials (lmaxx) =  3
               file Si.pbe-n-kjpaw_psl.0.1.UPF: wavefunction(s)  3S renormalized

     Subspace diagonalization in iterative solution of the eigenvalue problem:
     one sub-group per k-point group (pool) will be used
     scalapack distributed-memory algorithm (size of sub-group:  2*  2 procs)

 
     Parallelization info
     --------------------
     sticks:   dense  smooth     PW     G-vecs:    dense   smooth      PW
     Min         424     424    109                26332    26332    3467
     Max         425     425    110                26336    26336    3472
     Sum        6785    6785   1757               421349   421349   55515
 


     bravais-lattice index     =            0
     lattice parameter (alat)  =      20.6591  a.u.
     unit-cell volume          =    8817.2783 (a.u.)^3
     number of atoms/cell      =           64
     number of atomic types    =            1
     number of electrons       =       256.00
     number of Kohn-Sham states=          154
     kinetic-energy cutoff     =      50.0000  Ry
     charge density cutoff     =     200.0000  Ry
     convergence threshold     =      1.0E-09
     mixing beta               =       0.7000
     number of iterations used =            8  plain     mixing
     Exchange-correlation      =  SLA  PW   PBX  PBC ( 1  4  3  4 0 0)

     celldm(1)=  20.659106  celldm(2)=   0.000000  celldm(3)=   0.000000
     celldm(4)=   0.000000  celldm(5)=   0.000000  celldm(6)=   0.000000

     crystal axes: (cart. coord. in units of alat)
               a(1) = (   1.000000   0.000000   0.000000 )  
               a(2) = (   0.000000   1.000000   0.000000 )  
               a(3) = (   0.000000   0.000000   1.000000 )  

     reciprocal axes: (cart. coord. in units 2 pi/alat)
               b(1) = (  1.000000  0.000000  0.000000 )  
               b(2) = (  0.000000  1.000000  0.000000 )  
               b(3) = (  0.000000  0.000000  1.000000 )  


     PseudoPot. # 1 for Si read from file:
     /home/togo/espresso/pseudo/Si.pbe-n-kjpaw_psl.0.1.UPF
     MD5 check sum: b9d333a40e496bef61db012f150758bf
     Pseudo is Projector augmented-wave + core cor, Zval =  4.0
     Generated using "atomic" code by A. Dal Corso  v.5.0.2 svn rev. 9415
     Shape of augmentation charge: PSQ
     Using radial grid of 1141 points,  4 beta functions with: 
                l(1) =   0
                l(2) =   0
                l(3) =   1
                l(4) =   1
     Q(r) pseudized with 0 coefficients 


     atomic species   valence    mass     pseudopotential
        Si             4.00    28.08550     Si( 1.00)

     No symmetry found



   Cartesian axes

     site n.     atom                  positions (alat units)
         1           Si  tau(   1) = (   0.4404043   0.4375000   0.4375000  )
         2           Si  tau(   2) = (   0.9375000   0.4375000   0.4375000  )
         3           Si  tau(   3) = (   0.4375000   0.9375000   0.4375000  )
         4           Si  tau(   4) = (   0.9375000   0.9375000   0.4375000  )
         5           Si  tau(   5) = (   0.4375000   0.4375000   0.9375000  )
         6           Si  tau(   6) = (   0.9375000   0.4375000   0.9375000  )
         7           Si  tau(   7) = (   0.4375000   0.9375000   0.9375000  )
         8           Si  tau(   8) = (   0.9375000   0.9375000   0.9375000  )
         9           Si  tau(   9) = (   0.4375000   0.1875000   0.1875000  )
        10           Si  tau(  10) = (   0.9375000   0.1875000   0.1875000  )
        11           Si  tau(  11) = (   0.4375000   0.6875000   0.1875000  )
        12           Si  tau(  12) = (   0.9375000   0.6875000   0.1875000  )
        13           Si  tau(  13) = (   0.4375000   0.1875000   0.6875000  )
        14           Si  tau(  14) = (   0.9375000   0.1875000   0.6875000  )
        15           Si  tau(  15) = (   0.4375000   0.6875000   0.6875000  )
        16           Si  tau(  16) = (   0.9375000   0.6875000   0.6875000  )
        17           Si  tau(  17) = (   0.1875000   0.4375000   0.1875000  )
        18           Si  tau(  18) = (   0.6875000   0.4375000   0.1875000  )
        19           Si  tau(  19) = (   0.1875000   0.9375000   0.1875000  )
        20           Si  tau(  20) = (   0.6875000   0.9375000   0.1875000  )
        21           Si  tau(  21) = (   0.1875000   0.4375000   0.6875000  )
        22           Si  tau(  22) = (   0.6875000   0.4375000   0.6875000  )
        23           Si  tau(  23) = (   0.1875000   0.9375000   0.6875000  )
        24           Si  tau(  24) = (   0.6875000   0.9375000   0.6875000  )
        25           Si  tau(  25) = (   0.1875000   0.1875000   0.4375000  )
        26           Si  tau(  26) = (   0.6875000   0.1875000   0.4375000  )
        27           Si  tau(  27) = (   0.1875000   0.6875000   0.4375000  )
        28           Si  tau(  28) = (   0.6875000   0.6875000   0.4375000  )
        29           Si  tau(  29) = (   0.1875000   0.1875000   0.9375000  )
        30           Si  tau(  30) = (   0.6875000   0.1875000   0.9375000  )
        31           Si  tau(  31) = (   0.1875000   0.6875000   0.9375000  )
        32           Si  tau(  32) = (   0.6875000   0.6875000   0.9375000  )
        33           Si  tau(  33) = (   0.0625000   0.0625000   0.0625000  )
        34           Si  tau(  34) = (   0.5625000   0.0625000   0.0625000  )
        35           Si  tau(  35) = (   0.0625000   0.5625000   0.0625000  )
        36           Si  tau(  36) = (   0.5625000   0.5625000   0.0625000  )
        37           Si  tau(  37) = (   0.0625000   0.0625000   0.5625000  )
        38           Si  tau(  38) = (   0.5625000   0.0625000   0.5625000  )
        39           Si  tau(  39) = (   0.0625000   0.5625000   0.5625000  )
        40           Si  tau(  40) = (   0.5625000   0.5625000   0.5625000  )
        41           Si  tau(  41) = (   0.0625000   0.3125000   0.3125000  )
        42           Si  tau(  42) = (   0.5625000   0.3125000   0.3125000  )
        43           Si  tau(  43) = (   0.0625000   0.8125000   0.3125000  )
        44           Si  tau(  44) = (   0.5625000   0.8125000   0.3125000  )
        45           Si  tau(  45) = (   0.0625000   0.3125000   0.8125000  )
        46           Si  tau(  46) = (   0.5625000   0.3125000   0.8125000  )
        47           Si  tau(  47) = (   0.0625000   0.8125000   0.8125000  )
        48           Si  tau(  48) = (   0.5625000   0.8125000   0.8125000  )
        49           Si  tau(  49) = (   0.3125000   0.0595957   0.3125000  )
        50           Si  tau(  50) = (   0.8125000   0.0625000   0.3125000  )
        51           Si  tau(  51) = (   0.3125000   0.5625000   0.3125000  )
        52           Si  tau(  52) = (   0.8125000   0.5625000   0.3125000  )
        53           Si  tau(  53) = (   0.3125000   0.0625000   0.8125000  )
        54           Si  tau(  54) = (   0.8125000   0.0625000   0.8125000  )
        55           Si  tau(  55) = (   0.3125000   0.5625000   0.8125000  )
        56           Si  tau(  56) = (   0.8125000   0.5625000   0.8125000  )
        57           Si  tau(  57) = (   0.3125000   0.3125000   0.0625000  )
        58           Si  tau(  58) = (   0.8125000   0.3125000   0.0625000  )
        59           Si  tau(  59) = (   0.3125000   0.8125000   0.0625000  )
        60           Si  tau(  60) = (   0.8125000   0.8125000   0.0625000  )
        61           Si  tau(  61) = (   0.3125000   0.3125000   0.5625000  )
        62           Si  tau(  62) = (   0.8125000   0.3125000   0.5625000  )
        63           Si  tau(  63) = (   0.3125000   0.8125000   0.5625000  )
        64           Si  tau(  64) = (   0.8125000   0.8125000   0.5625000  )

     number of k points=     4  gaussian smearing, width (Ry)=  0.0100
                       cart. coord. in units 2pi/alat
        k(    1) = (   0.2500000   0.2500000   0.2500000), wk =   0.5000000
        k(    2) = (  -0.2500000  -0.2500000   0.2500000), wk =   0.5000000
        k(    3) = (  -0.2500000   0.2500000  -0.2500000), wk =   0.5000000
        k(    4) = (   0.2500000  -0.2500000  -0.2500000), wk =   0.5000000

     Dense  grid:   421349 G-vectors     FFT dimensions: (  96,  96,  96)

     Largest allocated arrays     est. size (Mb)     dimensions
        Kohn-Sham Wavefunctions         7.73 Mb     (    3289,  154)
        NL pseudopotentials            25.70 Mb     (    3289,  512)
        Each V/rho on FFT grid          0.84 Mb     (   55296)
        Each G-vector array             0.20 Mb     (   26336)
        G-vector shells                 0.01 Mb     (    1719)
     Largest temporary arrays     est. size (Mb)     dimensions
        Auxiliary wavefunctions        30.91 Mb     (    3289,  616)
        Each subspace H/S matrix        1.45 Mb     (     308,  308)
        Each <psi_i|beta_j> matrix      1.20 Mb     (     512,  154)
        Arrays for rho mixing           6.75 Mb     (   55296,    8)

     Check: negative/imaginary core charge=   -0.000001    0.000000

     Initial potential from superposition of free atoms

     starting charge  255.96421, renormalised to  256.00000
     Starting wfc are  256 randomized atomic wfcs
     Checking if some PAW data can be deallocated... 

     total cpu time spent up to now is        8.4 secs

     per-process dynamical memory:   114.8 Mb

     Self-consistent Calculation

     iteration #  1     ecut=    50.00 Ry     beta=0.70
     Davidson diagonalization with overlap
     ethr =  1.00E-02,  avg # of iterations =  3.0

     Threshold (ethr) on eigenvalues was too large:
     Diagonalizing with lowered threshold

     Davidson diagonalization with overlap
     ethr =  7.00E-04,  avg # of iterations =  1.0

     total cpu time spent up to now is       40.4 secs

     total energy              =   -2990.45692764 Ry
     Harris-Foulkes estimate   =   -2990.87684194 Ry
     estimated scf accuracy    <       1.77336373 Ry

     iteration #  2     ecut=    50.00 Ry     beta=0.70
     Davidson diagonalization with overlap
     ethr =  6.93E-04,  avg # of iterations =  1.0

     total cpu time spent up to now is       52.4 secs

     total energy              =   -2990.52360483 Ry
     Harris-Foulkes estimate   =   -2990.52748358 Ry
     estimated scf accuracy    <       0.07630800 Ry

     iteration #  3     ecut=    50.00 Ry     beta=0.70
     Davidson diagonalization with overlap
     ethr =  2.98E-05,  avg # of iterations = 11.2

     total cpu time spent up to now is       82.1 secs

     total energy              =   -2990.53056493 Ry
     Harris-Foulkes estimate   =   -2990.53137829 Ry
     estimated scf accuracy    <       0.00199013 Ry

     iteration #  4     ecut=    50.00 Ry     beta=0.70
     Davidson diagonalization with overlap
     ethr =  7.77E-07,  avg # of iterations =  6.5

     total cpu time spent up to now is      114.6 secs

     total energy              =   -2990.53032779 Ry
     Harris-Foulkes estimate   =   -2990.53279288 Ry
     estimated scf accuracy    <       0.00780501 Ry

     iteration #  5     ecut=    50.00 Ry     beta=0.70
     Davidson diagonalization with overlap
     ethr =  7.77E-07,  avg # of iterations =  4.8

     total cpu time spent up to now is      136.5 secs

     total energy              =   -2990.53148282 Ry
     Harris-Foulkes estimate   =   -2990.53160482 Ry
     estimated scf accuracy    <       0.00034924 Ry

     iteration #  6     ecut=    50.00 Ry     beta=0.70
     Davidson diagonalization with overlap
     ethr =  1.36E-07,  avg # of iterations =  2.0

     total cpu time spent up to now is      153.7 secs

     total energy              =   -2990.53154498 Ry
     Harris-Foulkes estimate   =   -2990.53156139 Ry
     estimated scf accuracy    <       0.00004692 Ry

     iteration #  7     ecut=    50.00 Ry     beta=0.70
     Davidson diagonalization with overlap
     ethr =  1.83E-08,  avg # of iterations =  3.0

     total cpu time spent up to now is      170.1 secs

     total energy              =   -2990.53155365 Ry
     Harris-Foulkes estimate   =   -2990.53155539 Ry
     estimated scf accuracy    <       0.00000400 Ry

     iteration #  8     ecut=    50.00 Ry     beta=0.70
     Davidson diagonalization with overlap
     ethr =  1.56E-09,  avg # of iterations =  3.0

     total cpu time spent up to now is      189.1 secs

     total energy              =   -2990.53155475 Ry
     Harris-Foulkes estimate   =   -2990.53155493 Ry
     estimated scf accuracy    <       0.00000040 Ry

     iteration #  9     ecut=    50.00 Ry     beta=0.70
     Davidson diagonalization with overlap
     ethr =  1.57E-10,  avg # of iterations =  3.0

     total cpu time spent up to now is      205.9 secs

     total energy              =   -2990.53155475 Ry
     Harris-Foulkes estimate   =   -2990.53155484 Ry
     estimated scf accuracy    <       0.00000012 Ry

     iteration # 10     ecut=    50.00 Ry     beta=0.70
     Davidson diagonalization with overlap
     ethr =  4.79E-11,  avg # of iterations =  3.0

     total cpu time spent up to now is      222.0 secs

     total energy              =   -2990.53155474 Ry
     Harris-Foulkes estimate   =   -2990.53155478 Ry
     estimated scf accuracy    <       0.00000007 Ry

     iteration # 11     ecut=    50.00 Ry     beta=0.70
     Davidson diagonalization with overlap
     ethr =  2.59E-11,  avg # of iterations =  2.0

     total cpu time spent up to now is      236.4 secs

     total energy              =   -2990.53155475 Ry
     Harris-Foulkes estimate   =   -2990.53155475 Ry
     estimated scf accuracy    <          1.9E-09 Ry

     iteration # 12     ecut=    50.00 Ry     beta=0.70
     Davidson diagonalization with overlap
     ethr =  7.52E-13,  avg # of iterations =  3.0

     total cpu time spent up to now is      257.9 secs

     total energy              =   -2990.53155475 Ry
     Harris-Foulkes estimate   =   -2990.53155475 Ry
     estimated scf accuracy    <          1.0E-09 Ry

     iteration # 13     ecut=    50.00 Ry     beta=0.70
     Davidson diagonalization with overlap
     ethr =  4.06E-13,  avg # of iterations =  2.2

     total cpu time spent up to now is      274.0 secs

     End of self-consistent calculation

          k = 0.2500 0.2500 0.2500 ( 52563 PWs)   bands (ev):

    -5.6250  -5.0994  -5.0966  -5.0934  -4.5995  -4.5969  -4.5937  -4.1620
    -4.0659  -4.0634  -4.0597  -3.6550  -3.6522  -3.6466  -3.6462  -3.6439
    -3.6413  -3.4596  -3.4549  -3.4519  -2.9593  -2.9582  -2.9525  -2.5935
    -2.5892  -2.5861  -2.4292  -2.4251  -2.4206  -2.4201  -2.4168  -2.4145
    -0.8863  -0.8808  -0.8778  -0.8774  -0.8730  -0.8716  -0.7830  -0.7801
    -0.7759  -0.6631  -0.6618  -0.6561  -0.5883  -0.5778  -0.5749   0.1226
     0.2066   0.2094   0.2109   0.2117   0.2160   0.2190   1.0760   1.0849
     1.0879   1.4152   1.4184   1.4215   2.0244   2.0271   2.0285   2.0302
     2.0320   2.0332   2.0871   2.0892   2.0920   2.6366   2.6377   2.6401
     2.7391   2.7407   2.7446   2.7453   2.7479   2.7490   2.7951   2.7992
     2.8022   3.1031   3.1051   3.1074   3.1082   3.1086   3.1122   3.3709
     3.3733   3.3740   3.3852   3.3873   3.3905   3.7289   3.7328   3.7357
     3.7502   3.7536   3.7567   3.8386   3.8409   3.8428   4.1027   4.1084
     4.1123   4.1145   4.1149   4.1159   4.1527   4.1551   4.1576   4.4089
     4.4711   4.4739   4.4750   4.7140   4.7165   4.7189   4.7673   4.7766
     4.7783   4.9350   4.9400   5.2429   5.2462   5.2500   5.7236   5.7293
     6.9346   6.9387   6.9405   7.3735   7.3771   7.3819   7.6002   7.8598
     7.8634   7.8673   7.9873   7.9895   7.9941   8.1490   8.1504   8.1556
     8.1671   8.1707   8.1723   8.3947   8.3966   8.4005   8.4028   8.4037
     8.4049   8.4505

          k =-0.2500-0.2500 0.2500 ( 52563 PWs)   bands (ev):

    -5.6251  -5.0989  -5.0978  -5.0919  -4.5994  -4.5985  -4.5924  -4.1643
    -4.0663  -4.0653  -4.0594  -3.6513  -3.6505  -3.6496  -3.6479  -3.6407
    -3.6394  -3.4577  -3.4547  -3.4499  -2.9635  -2.9621  -2.9557  -2.5923
    -2.5891  -2.5853  -2.4257  -2.4245  -2.4228  -2.4218  -2.4159  -2.4121
    -0.8855  -0.8831  -0.8810  -0.8793  -0.8740  -0.8700  -0.7849  -0.7809
    -0.7783  -0.6679  -0.6622  -0.6613  -0.5771  -0.5721  -0.5662   0.1300
     0.2019   0.2053   0.2065   0.2095   0.2155   0.2169   1.0831   1.0887
     1.0915   1.4155   1.4186   1.4208   2.0252   2.0264   2.0285   2.0296
     2.0309   2.0334   2.0849   2.0863   2.0902   2.6401   2.6424   2.6436
     2.7353   2.7380   2.7416   2.7440   2.7452   2.7465   2.7914   2.7942
     2.7975   3.1023   3.1047   3.1061   3.1079   3.1119   3.1136   3.3689
     3.3700   3.3727   3.3825   3.3848   3.3876   3.7338   3.7353   3.7405
     3.7562   3.7597   3.7633   3.8348   3.8389   3.8415   4.1117   4.1131
     4.1150   4.1169   4.1192   4.1258   4.1483   4.1529   4.1562   4.4169
     4.4668   4.4679   4.4714   4.7086   4.7132   4.7155   4.7792   4.7843
     4.7878   4.9325   4.9375   5.2356   5.2418   5.2450   5.7188   5.7244
     6.9318   6.9338   6.9380   7.3708   7.3768   7.3803   7.5972   7.8562
     7.8605   7.8639   7.9892   7.9938   7.9963   8.1476   8.1508   8.1539
     8.1663   8.1681   8.1711   8.3980   8.4000   8.4037   8.4048   8.4084
     8.4098   8.4459

          k =-0.2500 0.2500-0.2500 ( 52563 PWs)   bands (ev):

    -5.6250  -5.1005  -5.0963  -5.0922  -4.6009  -4.5966  -4.5927  -4.1632
    -4.0676  -4.0633  -4.0592  -3.6566  -3.6498  -3.6470  -3.6449  -3.6444
    -3.6397  -3.4591  -3.4548  -3.4505  -2.9638  -2.9579  -2.9541  -2.5929
    -2.5891  -2.5857  -2.4306  -2.4233  -2.4207  -2.4190  -2.4184  -2.4125
    -0.8885  -0.8816  -0.8781  -0.8767  -0.8751  -0.8702  -0.7840  -0.7805
    -0.7767  -0.6674  -0.6621  -0.6570  -0.5839  -0.5752  -0.5690   0.1263
     0.2014   0.2063   0.2106   0.2133   0.2145   0.2184   1.0794   1.0861
     1.0906   1.4138   1.4186   1.4226   2.0247   2.0263   2.0280   2.0294
     2.0321   2.0344   2.0846   2.0886   2.0914   2.6383   2.6401   2.6418
     2.7373   2.7394   2.7415   2.7441   2.7470   2.7496   2.7922   2.7962
     2.8010   3.1010   3.1045   3.1078   3.1085   3.1099   3.1136   3.3686
     3.3720   3.3740   3.3822   3.3868   3.3902   3.7311   3.7346   3.7380
     3.7540   3.7566   3.7589   3.8358   3.8405   3.8423   4.1055   4.1119
     4.1138   4.1150   4.1170   4.1220   4.1494   4.1550   4.1570   4.4132
     4.4678   4.4708   4.4743   4.7101   4.7151   4.7181   4.7730   4.7791
     4.7849   4.9319   4.9406   5.2378   5.2445   5.2484   5.7191   5.7289
     6.9324   6.9363   6.9400   7.3710   7.3784   7.3809   7.5987   7.8567
     7.8631   7.8658   7.9877   7.9917   7.9956   8.1472   8.1515   8.1546
     8.1656   8.1692   8.1734   8.3943   8.3988   8.4028   8.4039   8.4057
     8.4086   8.4481

          k = 0.2500-0.2500-0.2500 ( 52563 PWs)   bands (ev):

    -5.6250  -5.1000  -5.0970  -5.0920  -4.6003  -4.5974  -4.5925  -4.1631
    -4.0670  -4.0642  -4.0588  -3.6558  -3.6492  -3.6489  -3.6458  -3.6441
    -3.6386  -3.4589  -3.4548  -3.4505  -2.9627  -2.9597  -2.9534  -2.5930
    -2.5891  -2.5856  -2.4294  -2.4233  -2.4224  -2.4193  -2.4176  -2.4124
    -0.8879  -0.8820  -0.8797  -0.8765  -0.8741  -0.8697  -0.7839  -0.7807
    -0.7767  -0.6673  -0.6622  -0.6569  -0.5835  -0.5761  -0.5686   0.1263
     0.2025   0.2055   0.2088   0.2122   0.2159   0.2196   1.0798   1.0850
     1.0912   1.4140   1.4181   1.4229   2.0243   2.0267   2.0283   2.0296
     2.0308   2.0351   2.0849   2.0880   2.0916   2.6379   2.6400   2.6424
     2.7368   2.7390   2.7425   2.7445   2.7476   2.7485   2.7925   2.7959
     2.8011   3.1019   3.1046   3.1065   3.1072   3.1100   3.1152   3.3697
     3.3718   3.3735   3.3823   3.3861   3.3903   3.7304   3.7351   3.7376
     3.7527   3.7565   3.7610   3.8362   3.8392   3.8432   4.1063   4.1119
     4.1131   4.1149   4.1166   4.1226   4.1499   4.1534   4.1578   4.4130
     4.4687   4.4713   4.4731   4.7106   4.7141   4.7187   4.7733   4.7786
     4.7851   4.9319   4.9405   5.2383   5.2433   5.2491   5.7191   5.7289
     6.9330   6.9360   6.9396   7.3711   7.3777   7.3813   7.5987   7.8567
     7.8630   7.8658   7.9876   7.9918   7.9956   8.1469   8.1521   8.1544
     8.1674   8.1692   8.1716   8.3967   8.3985   8.4001   8.4031   8.4058
     8.4100   8.4482

     the Fermi energy is     6.3276 ev

!    total energy              =   -2990.53155475 Ry
     Harris-Foulkes estimate   =   -2990.53155475 Ry
     estimated scf accuracy    <          2.7E-10 Ry

     total all-electron energy =    -37124.667108 Ry

     The total energy is the sum of the following terms:

     one-electron contribution =     178.60630749 Ry
     hartree contribution      =      35.70155380 Ry
     xc contribution           =    -391.44199772 Ry
     ewald contribution        =    -534.00611230 Ry
     one-center paw contrib.   =   -2279.39130603 Ry
     smearing contrib. (-TS)   =       0.00000000 Ry

     convergence has been achieved in  13 iterations

     Forces acting on atoms (Ry/au):

     atom    1 type  1   force =    -0.01585400    0.00001220    0.00003901
     atom    2 type  1   force =     0.00004782   -0.00002610    0.00002668
     atom    3 type  1   force =     0.00276012   -0.00392870    0.00270529
     atom    4 type  1   force =     0.00003176    0.00006020    0.00005056
     atom    5 type  1   force =     0.00008139   -0.00002640    0.00002542
     atom    6 type  1   force =     0.00002401    0.00002199    0.00003111
     atom    7 type  1   force =    -0.00042492    0.00006028    0.00003888
     atom    8 type  1   force =     0.00005249   -0.00025630    0.00002728
     atom    9 type  1   force =    -0.00300960   -0.00369669    0.00259523
     atom   10 type  1   force =    -0.00003748    0.00006836    0.00006064
     atom   11 type  1   force =    -0.00056116    0.00012137   -0.00007170
     atom   12 type  1   force =    -0.00002654   -0.00001907    0.00001860
     atom   13 type  1   force =    -0.00057563   -0.00005085    0.00014658
     atom   14 type  1   force =    -0.00002651   -0.00026228    0.00003759
     atom   15 type  1   force =    -0.00055729   -0.00014264   -0.00008718
     atom   16 type  1   force =    -0.00003101    0.00001216    0.00002200
     atom   17 type  1   force =     0.00019403   -0.00009745    0.00018916
     atom   18 type  1   force =     0.00021235   -0.00013974   -0.00026020
     atom   19 type  1   force =    -0.00266247   -0.00393891   -0.00278261
     atom   20 type  1   force =     0.00000350    0.00005055    0.00002618
     atom   21 type  1   force =     0.00020480    0.00008371   -0.00025240
     atom   22 type  1   force =     0.00020667    0.00013540    0.00020201
     atom   23 type  1   force =    -0.00000751    0.00007027    0.00003846
     atom   24 type  1   force =     0.00001530   -0.00024656   -0.00010415
     atom   25 type  1   force =     0.00271407   -0.00358362   -0.00259123
     atom   26 type  1   force =     0.00027460   -0.00017447   -0.00016532
     atom   27 type  1   force =     0.00026944   -0.00021529    0.00007228
     atom   28 type  1   force =     0.00026448    0.00020437    0.00008458
     atom   29 type  1   force =     0.00009442   -0.00001821   -0.00004712
     atom   30 type  1   force =     0.00006996   -0.00017583   -0.00003694
     atom   31 type  1   force =     0.00007153    0.00004835   -0.00001729
     atom   32 type  1   force =     0.00007388   -0.00005520   -0.00002087
     atom   33 type  1   force =     0.00009301    0.00055949    0.00014470
     atom   34 type  1   force =     0.00036511    0.00055201   -0.00008097
     atom   35 type  1   force =     0.00003543    0.00002698    0.00003390
     atom   36 type  1   force =    -0.00005055    0.00004893    0.00002935
     atom   37 type  1   force =    -0.00008271    0.00054879    0.00013707
     atom   38 type  1   force =    -0.00017487    0.00056718   -0.00006438
     atom   39 type  1   force =    -0.00002202    0.00003721    0.00004813
     atom   40 type  1   force =     0.00392047    0.00270541    0.00269549
     atom   41 type  1   force =     0.00021550   -0.00026936   -0.00014789
     atom   42 type  1   force =     0.00370082   -0.00293723   -0.00259627
     atom   43 type  1   force =    -0.00020642   -0.00026352   -0.00014048
     atom   44 type  1   force =     0.00017255   -0.00027711    0.00006374
     atom   45 type  1   force =    -0.00005056   -0.00006921   -0.00003468
     atom   46 type  1   force =     0.00001643   -0.00009235   -0.00002873
     atom   47 type  1   force =     0.00005457   -0.00007425   -0.00004071
     atom   48 type  1   force =     0.00017993   -0.00007111   -0.00001800
     atom   49 type  1   force =    -0.00005723    0.01585356    0.00005165
     atom   50 type  1   force =     0.00002767   -0.00008125    0.00002886
     atom   51 type  1   force =     0.00381248   -0.00250504    0.00248093
     atom   52 type  1   force =    -0.00001302   -0.00003057    0.00003744
     atom   53 type  1   force =     0.00025248   -0.00008198    0.00002744
     atom   54 type  1   force =    -0.00002132    0.00044376    0.00003071
     atom   55 type  1   force =    -0.00005868   -0.00004480    0.00003752
     atom   56 type  1   force =     0.00002833   -0.00005332    0.00002736
     atom   57 type  1   force =    -0.00016779   -0.00017928    0.00019055
     atom   58 type  1   force =     0.00001819   -0.00001308   -0.00010407
     atom   59 type  1   force =     0.00013877   -0.00021047   -0.00026062
     atom   60 type  1   force =    -0.00003140   -0.00001294    0.00004515
     atom   61 type  1   force =     0.00392214    0.00224988   -0.00270981
     atom   62 type  1   force =    -0.00000312   -0.00000453    0.00003949
     atom   63 type  1   force =     0.00005538   -0.00020071    0.00018140
     atom   64 type  1   force =     0.00003790   -0.00001601   -0.00010478

     Total force =     0.027175     Total SCF correction =     0.000032

     Writing output data file pwscf.save
 
     init_run     :      8.12s CPU      8.22s WALL (       1 calls)
     electrons    :    260.79s CPU    273.60s WALL (       1 calls)
     forces       :      3.66s CPU      3.70s WALL (       1 calls)

     Called by init_run:
     wfcinit      :      7.64s CPU      7.71s WALL (       1 calls)
     potinit      :      0.20s CPU      0.21s WALL (       1 calls)

     Called by electrons:
     c_bands      :    236.24s CPU    240.93s WALL (      14 calls)
     sum_band     :     21.33s CPU     21.46s WALL (      14 calls)
     v_of_rho     :      0.50s CPU      0.51s WALL (      14 calls)
     newd         :      0.71s CPU      0.72s WALL (      14 calls)
     PAW_pot      :      2.00s CPU      2.01s WALL (      14 calls)
     mix_rho      :      0.17s CPU      0.17s WALL (      14 calls)

     Called by c_bands:
     init_us_2    :      1.25s CPU      1.26s WALL (     120 calls)
     cegterg      :    230.39s CPU    232.32s WALL (      56 calls)

     Called by sum_band:
     sum_band:bec :      0.04s CPU      0.04s WALL (      56 calls)
     addusdens    :      0.70s CPU      0.76s WALL (      14 calls)

     Called by *egterg:
     h_psi        :    108.95s CPU    109.24s WALL (     255 calls)
     s_psi        :     29.62s CPU     29.67s WALL (     255 calls)
     g_psi        :      0.68s CPU      0.68s WALL (     195 calls)
     cdiaghg      :     35.90s CPU     36.02s WALL (     247 calls)

     Called by h_psi:
     add_vuspsi   :     29.70s CPU     29.74s WALL (     255 calls)

     General routines
     calbec       :     44.04s CPU     44.16s WALL (     327 calls)
     fft          :      0.33s CPU      0.34s WALL (     195 calls)
     fftw         :     52.52s CPU     52.69s WALL (   56994 calls)
     davcio       :      0.01s CPU      0.02s WALL (       4 calls)
 
     Parallel routines
     fft_scatter  :     13.79s CPU     13.86s WALL (   57189 calls)
 
     PWSCF        :  4m32.87s CPU     5m 7.30s WALL

 
   This run was terminated on:  13:52:19   3Feb2016            

=------------------------------------------------------------------------------=
   JOB DONE.
=------------------------------------------------------------------------------=
