<?xml version="1.0" encoding="ISO-8859-1"?>
<modeling>
 <generator>
  <i name="program" type="string">vasp </i>
  <i name="version" type="string">5.4.1  </i>
  <i name="subversion" type="string">05Feb16 (build Mar 26 2016 11:58:25) complex                          parallel </i>
  <i name="platform" type="string">IFC91_ompi </i>
  <i name="date" type="string">2017 03 12 </i>
  <i name="time" type="string">12:17:26 </i>
 </generator>
 <incar>
  <i type="string" name="PREC">accurate</i>
  <i type="int" name="IALGO">    38</i>
  <i type="logical" name="ADDGRID"> T  </i>
  <i type="int" name="NELMIN">     5</i>
  <i type="int" name="IBRION">    -1</i>
  <i name="EDIFF">      0.00000001</i>
  <i name="ENCUT">    300.00000000</i>
  <i type="logical" name="LREAL"> F  </i>
  <i type="int" name="ISMEAR">     0</i>
  <i name="SIGMA">      0.05000000</i>
  <i type="logical" name="LWAVE"> F  </i>
  <i type="logical" name="LCHARG"> F  </i>
  <v type="int" name="KPOINT_BSE">    -1     0     0     0</v>
 </incar>
 <kpoints>
  <generation param="Monkhorst-Pack">
   <v type="int" name="divisions">       2        2        2 </v>
   <v name="usershift">      0.00000000       0.00000000       0.00000000 </v>
   <v name="genvec1">      0.50000000       0.00000000       0.00000000 </v>
   <v name="genvec2">      0.00000000       0.50000000       0.00000000 </v>
   <v name="genvec3">      0.00000000       0.00000000       0.50000000 </v>
   <v name="shift">      0.50000000       0.50000000       0.50000000 </v>
  </generation>
  <varray name="kpointlist" >
   <v>       0.25000000       0.25000000       0.25000000 </v>
   <v>      -0.25000000       0.25000000       0.25000000 </v>
   <v>      -0.25000000      -0.25000000       0.25000000 </v>
  </varray>
  <varray name="weights" >
   <v>       0.25000000 </v>
   <v>       0.50000000 </v>
   <v>       0.25000000 </v>
  </varray>
 </kpoints>
 <parameters>
  <separator name="general" >
   <i type="string" name="SYSTEM">unknown system</i>
   <i type="logical" name="LCOMPAT"> F  </i>
  </separator>
  <separator name="electronic" >
   <i type="string" name="PREC">accura</i>
   <i name="ENMAX">    300.00000000</i>
   <i name="ENAUG">    322.06900000</i>
   <i name="EDIFF">      0.00000001</i>
   <i type="int" name="IALGO">    38</i>
   <i type="int" name="IWAVPR">    10</i>
   <i type="int" name="NBANDS">   164</i>
   <i name="NELECT">    256.00000000</i>
   <i type="int" name="TURBO">     0</i>
   <i type="int" name="IRESTART">     0</i>
   <i type="int" name="NREBOOT">     0</i>
   <i type="int" name="NMIN">     0</i>
   <i name="EREF">      0.00000000</i>
   <separator name="electronic smearing" >
    <i type="int" name="ISMEAR">     0</i>
    <i name="SIGMA">      0.05000000</i>
    <i name="KSPACING">      0.50000000</i>
    <i type="logical" name="KGAMMA"> T  </i>
   </separator>
   <separator name="electronic projectors" >
    <i type="logical" name="LREAL"> F  </i>
    <v name="ROPT">      0.00000000</v>
    <i type="int" name="LMAXPAW">  -100</i>
    <i type="int" name="LMAXMIX">     2</i>
    <i type="logical" name="NLSPLINE"> F  </i>
   </separator>
   <separator name="electronic startup" >
    <i type="int" name="ISTART">     0</i>
    <i type="int" name="ICHARG">     2</i>
    <i type="int" name="INIWAV">     1</i>
   </separator>
   <separator name="electronic spin" >
    <i type="int" name="ISPIN">     1</i>
    <i type="logical" name="LNONCOLLINEAR"> F  </i>
    <v name="MAGMOM">      1.00000000      1.00000000      1.00000000      1.00000000      1.00000000      1.00000000      1.00000000      1.00000000      1.00000000      1.00000000      1.00000000      1.00000000      1.00000000      1.00000000      1.00000000      1.00000000      1.00000000      1.00000000      1.00000000      1.00000000
      1.00000000      1.00000000      1.00000000      1.00000000      1.00000000      1.00000000      1.00000000      1.00000000      1.00000000      1.00000000      1.00000000      1.00000000      1.00000000      1.00000000      1.00000000      1.00000000      1.00000000      1.00000000      1.00000000      1.00000000
      1.00000000      1.00000000      1.00000000      1.00000000      1.00000000      1.00000000      1.00000000      1.00000000      1.00000000      1.00000000      1.00000000      1.00000000      1.00000000      1.00000000      1.00000000      1.00000000      1.00000000      1.00000000      1.00000000      1.00000000
      1.00000000      1.00000000      1.00000000      1.00000000</v>
    <i name="NUPDOWN">     -1.00000000</i>
    <i type="logical" name="LSORBIT"> F  </i>
    <v name="SAXIS">      0.00000000      0.00000000      1.00000000</v>
    <i type="logical" name="LSPIRAL"> F  </i>
    <v name="QSPIRAL">      0.00000000      0.00000000      0.00000000</v>
    <i type="logical" name="LZEROZ"> F  </i>
   </separator>
   <separator name="electronic exchange-correlation" >
    <i type="logical" name="LASPH"> F  </i>
    <i type="logical" name="LMETAGGA"> F  </i>
   </separator>
   <separator name="electronic convergence" >
    <i type="int" name="NELM">    60</i>
    <i type="int" name="NELMDL">    -5</i>
    <i type="int" name="NELMIN">     5</i>
    <i name="ENINI">    300.00000000</i>
    <separator name="electronic convergence detail" >
     <i type="logical" name="LDIAG"> T  </i>
     <i type="logical" name="LSUBROT"> F  </i>
     <i name="WEIMIN">      0.00000000</i>
     <i name="EBREAK">      0.00000000</i>
     <i name="DEPER">      0.30000000</i>
     <i type="int" name="NRMM">     4</i>
     <i name="TIME">      0.40000000</i>
    </separator>
   </separator>
   <separator name="electronic mixer" >
    <i name="AMIX">      0.40000000</i>
    <i name="BMIX">      1.00000000</i>
    <i name="AMIN">      0.10000000</i>
    <i name="AMIX_MAG">      1.60000000</i>
    <i name="BMIX_MAG">      1.00000000</i>
    <separator name="electronic mixer details" >
     <i type="int" name="IMIX">     4</i>
     <i type="logical" name="MIXFIRST"> F  </i>
     <i type="int" name="MAXMIX">   -45</i>
     <i name="WC">    100.00000000</i>
     <i type="int" name="INIMIX">     1</i>
     <i type="int" name="MIXPRE">     1</i>
     <i type="int" name="MREMOVE">     5</i>
    </separator>
   </separator>
   <separator name="electronic dipolcorrection" >
    <i type="logical" name="LDIPOL"> F  </i>
    <i type="logical" name="LMONO"> F  </i>
    <i type="int" name="IDIPOL">     0</i>
    <i name="EPSILON">      1.00000000</i>
    <v name="DIPOL">   -100.00000000   -100.00000000   -100.00000000</v>
    <i name="EFIELD">      0.00000000</i>
   </separator>
  </separator>
  <separator name="grids" >
   <i type="int" name="NGX">    64</i>
   <i type="int" name="NGY">    64</i>
   <i type="int" name="NGZ">    64</i>
   <i type="int" name="NGXF">   128</i>
   <i type="int" name="NGYF">   128</i>
   <i type="int" name="NGZF">   128</i>
   <i type="logical" name="ADDGRID"> T  </i>
  </separator>
  <separator name="ionic" >
   <i type="int" name="NSW">     0</i>
   <i type="int" name="IBRION">    -1</i>
   <i type="int" name="ISIF">     2</i>
   <i name="PSTRESS">      0.00000000</i>
   <i name="EDIFFG">      0.00000010</i>
   <i type="int" name="NFREE">     0</i>
   <i name="POTIM">      0.50000000</i>
   <i name="SMASS">     -3.00000000</i>
   <i name="SCALEE">      1.00000000</i>
  </separator>
  <separator name="ionic md" >
   <i name="TEBEG">      0.00010000</i>
   <i name="TEEND">      0.00010000</i>
   <i type="int" name="NBLOCK">     1</i>
   <i type="int" name="KBLOCK">     1</i>
   <i type="int" name="NPACO">   256</i>
   <i name="APACO">     16.00000000</i>
  </separator>
  <separator name="symmetry" >
   <i type="int" name="ISYM">     2</i>
   <i name="SYMPREC">      0.00001000</i>
  </separator>
  <separator name="dos" >
   <i type="logical" name="LORBIT"> F  </i>
   <v name="RWIGS">     -1.00000000</v>
   <i type="int" name="NEDOS">   301</i>
   <i name="EMIN">     10.00000000</i>
   <i name="EMAX">    -10.00000000</i>
   <i name="EFERMI">      0.00000000</i>
  </separator>
  <separator name="writing" >
   <i type="int" name="NWRITE">     2</i>
   <i type="logical" name="LWAVE"> F  </i>
   <i type="logical" name="LCHARG"> F  </i>
   <i type="logical" name="LPARD"> F  </i>
   <i type="logical" name="LVTOT"> F  </i>
   <i type="logical" name="LVHAR"> F  </i>
   <i type="logical" name="LELF"> F  </i>
   <i type="logical" name="LOPTICS"> F  </i>
   <v name="STM">      0.00000000      0.00000000      0.00000000      0.00000000      0.00000000      0.00000000      0.00000000</v>
  </separator>
  <separator name="performance" >
   <i type="int" name="NPAR">     4</i>
   <i type="int" name="NSIM">     4</i>
   <i type="int" name="NBLK">    -1</i>
   <i type="logical" name="LPLANE"> T  </i>
   <i type="logical" name="LSCALAPACK"> T  </i>
   <i type="logical" name="LSCAAWARE"> F  </i>
   <i type="logical" name="LSCALU"> F  </i>
   <i type="logical" name="LASYNC"> F  </i>
   <i type="logical" name="LORBITALREAL"> F  </i>
  </separator>
  <separator name="miscellaneous" >
   <i type="int" name="IDIOT">     3</i>
   <i type="logical" name="LMUSIC"> F  </i>
   <v name="POMASS">     28.08500000</v>
   <v name="DARWINR">      0.00000000</v>
   <v name="DARWINV">      1.00000000</v>
   <i type="logical" name="LCORR"> T  </i>
  </separator>
  <i type="logical" name="GGA_COMPAT"> T  </i>
  <i type="logical" name="LBERRY"> F  </i>
  <i type="int" name="ICORELEVEL">     0</i>
  <i type="logical" name="LDAU"> F  </i>
  <i type="int" name="I_CONSTRAINED_M">     0</i>
  <separator name="electronic exchange-correlation" >
   <i type="string" name="GGA">--</i>
   <i type="int" name="VOSKOWN">     0</i>
   <i type="logical" name="LHFCALC"> F  </i>
   <i type="string" name="PRECFOCK"></i>
   <i type="logical" name="LSYMGRAD"> F  </i>
   <i type="logical" name="LHFONE"> F  </i>
   <i type="logical" name="LRHFCALC"> F  </i>
   <i type="logical" name="LTHOMAS"> F  </i>
   <i type="logical" name="LMODELHF"> F  </i>
   <i name="ENCUT4O">     -1.00000000</i>
   <i type="int" name="EXXOEP">     0</i>
   <i type="int" name="FOURORBIT">     0</i>
   <i name="AEXX">      0.00000000</i>
   <i name="HFALPHA">      0.00000000</i>
   <i name="MCALPHA">      0.00000000</i>
   <i name="ALDAX">      1.00000000</i>
   <i name="AGGAX">      1.00000000</i>
   <i name="ALDAC">      1.00000000</i>
   <i name="AGGAC">      1.00000000</i>
   <i type="int" name="NKREDX">     1</i>
   <i type="int" name="NKREDY">     1</i>
   <i type="int" name="NKREDZ">     1</i>
   <i type="logical" name="SHIFTRED"> F  </i>
   <i type="logical" name="ODDONLY"> F  </i>
   <i type="logical" name="EVENONLY"> F  </i>
   <i type="int" name="LMAXFOCK">     0</i>
   <i type="int" name="NMAXFOCKAE">     0</i>
   <i type="logical" name="LFOCKAEDFT"> F  </i>
   <i name="HFSCREEN">      0.00000000</i>
   <i name="HFSCREENC">      0.00000000</i>
   <i type="int" name="NBANDSGWLOW">     0</i>
  </separator>
  <separator name="vdW DFT" >
   <i type="logical" name="LUSE_VDW"> F  </i>
   <i name="Zab_VDW">     -0.84910000</i>
   <i name="PARAM1">      0.12340000</i>
   <i name="PARAM2">      1.00000000</i>
   <i name="PARAM3">      0.00000000</i>
  </separator>
  <separator name="model GW" >
   <i type="int" name="MODEL_GW">     0</i>
   <i name="MODEL_EPS0">     12.24990743</i>
   <i name="MODEL_ALPHA">      1.00000000</i>
  </separator>
  <separator name="linear response parameters" >
   <i type="logical" name="LEPSILON"> F  </i>
   <i type="logical" name="LRPA"> F  </i>
   <i type="logical" name="LNABLA"> F  </i>
   <i type="logical" name="LVEL"> F  </i>
   <i type="int" name="KINTER">     0</i>
   <i name="CSHIFT">      0.10000000</i>
   <i name="OMEGAMAX">     -1.00000000</i>
   <i name="DEG_THRESHOLD">      0.00200000</i>
  </separator>
  <separator name="orbital magnetization" >
   <i type="logical" name="NUCIND"> F  </i>
   <v name="MAGPOS">      0.00000000      0.00000000      0.00000000</v>
   <i type="logical" name="LNICSALL"> T  </i>
   <i type="logical" name="ORBITALMAG"> F  </i>
   <i type="logical" name="LMAGBLOCH"> F  </i>
   <i type="logical" name="LCHIMAG"> F  </i>
   <i type="logical" name="LGAUGE"> T  </i>
   <i type="int" name="MAGATOM">     0</i>
   <v name="MAGDIPOL">      0.00000000      0.00000000      0.00000000</v>
   <v name="AVECCONST">      0.00000000      0.00000000      0.00000000</v>
  </separator>
  <separator name="response functions" >
   <i type="logical" name="LADDER"> F  </i>
   <i type="logical" name="LFXC"> F  </i>
   <i type="logical" name="LHARTREE"> T  </i>
   <i type="int" name="IBSE">     0</i>
   <v type="int" name="KPOINT">    -1     0     0     0</v>
   <i type="logical" name="LTCTE"> F  </i>
   <i type="logical" name="LTETE"> F  </i>
   <i type="logical" name="LTRIPLET"> F  </i>
   <i type="logical" name="LFXCEPS"> F  </i>
   <i type="logical" name="LFXHEG"> F  </i>
   <i type="int" name="NATURALO">     0</i>
   <i type="logical" name="L2ORDER"> F  </i>
   <i type="logical" name="LUSEW"> F  </i>
   <i name="ENCUTGW">     -2.00000000</i>
   <i name="ENCUTGWSOFT">     -2.00000000</i>
   <i name="ENCUTLF">     -1.00000000</i>
   <i type="int" name="LMAXMP2">    -1</i>
   <i name="SCISSOR">      0.00000000</i>
   <i type="int" name="NOMEGA">     0</i>
   <i type="int" name="NOMEGAR">     0</i>
   <i type="int" name="NBANDSGW">    -1</i>
   <i type="int" name="NBANDSO">    -1</i>
   <i type="int" name="NBANDSV">    -1</i>
   <i type="int" name="NELM">     1</i>
   <i type="int" name="NELMHF">     1</i>
   <i type="int" name="DIM">     3</i>
   <i type="int" name="ANTIRES">     0</i>
   <i name="OMEGAMAX">    -30.00000000</i>
   <i name="OMEGAMIN">    -30.00000000</i>
   <i name="OMEGATL">   -200.00000000</i>
   <i type="int" name="OMEGAGRID">     0</i>
   <i name="CSHIFT">     -0.10000000</i>
   <i type="logical" name="SELFENERGY"> F  </i>
   <i type="logical" name="LSPECTRAL"> F  </i>
   <i type="logical" name="LSPECTRALGW"> F  </i>
   <i type="logical" name="LSINGLES"> F  </i>
   <i type="logical" name="LFERMIGW"> F  </i>
   <i type="logical" name="ODDONLYGW"> F  </i>
   <i type="logical" name="EVENONLYGW"> F  </i>
   <i type="int" name="NKREDLFX">     1</i>
   <i type="int" name="NKREDLFY">     1</i>
   <i type="int" name="NKREDLFZ">     1</i>
   <i type="int" name="MAXMEM">  1800</i>
   <i type="int" name="TELESCOPE">     0</i>
   <i type="int" name="TAUPAR">     1</i>
   <i type="int" name="OMEGAPAR">    -1</i>
   <i name="LAMBDA">      1.00000000</i>
  </separator>
  <separator name="External order field" >
   <i name="OFIELD_KAPPA">      0.00000000</i>
   <v name="OFIELD_K">      0.00000000      0.00000000      0.00000000</v>
   <i name="OFIELD_Q6_NEAR">      0.00000000</i>
   <i name="OFIELD_Q6_FAR">      0.00000000</i>
   <i name="OFIELD_A">      0.00000000</i>
  </separator>
 </parameters>
 <atominfo>
  <atoms>      64 </atoms>
  <types>       1 </types>
  <array name="atoms" >
   <dimension dim="1">ion</dimension>
   <field type="string">element</field>
   <field type="int">atomtype</field>
   <set>
    <rc><c>Si</c><c>   1</c></rc>
    <rc><c>Si</c><c>   1</c></rc>
    <rc><c>Si</c><c>   1</c></rc>
    <rc><c>Si</c><c>   1</c></rc>
    <rc><c>Si</c><c>   1</c></rc>
    <rc><c>Si</c><c>   1</c></rc>
    <rc><c>Si</c><c>   1</c></rc>
    <rc><c>Si</c><c>   1</c></rc>
    <rc><c>Si</c><c>   1</c></rc>
    <rc><c>Si</c><c>   1</c></rc>
    <rc><c>Si</c><c>   1</c></rc>
    <rc><c>Si</c><c>   1</c></rc>
    <rc><c>Si</c><c>   1</c></rc>
    <rc><c>Si</c><c>   1</c></rc>
    <rc><c>Si</c><c>   1</c></rc>
    <rc><c>Si</c><c>   1</c></rc>
    <rc><c>Si</c><c>   1</c></rc>
    <rc><c>Si</c><c>   1</c></rc>
    <rc><c>Si</c><c>   1</c></rc>
    <rc><c>Si</c><c>   1</c></rc>
    <rc><c>Si</c><c>   1</c></rc>
    <rc><c>Si</c><c>   1</c></rc>
    <rc><c>Si</c><c>   1</c></rc>
    <rc><c>Si</c><c>   1</c></rc>
    <rc><c>Si</c><c>   1</c></rc>
    <rc><c>Si</c><c>   1</c></rc>
    <rc><c>Si</c><c>   1</c></rc>
    <rc><c>Si</c><c>   1</c></rc>
    <rc><c>Si</c><c>   1</c></rc>
    <rc><c>Si</c><c>   1</c></rc>
    <rc><c>Si</c><c>   1</c></rc>
    <rc><c>Si</c><c>   1</c></rc>
    <rc><c>Si</c><c>   1</c></rc>
    <rc><c>Si</c><c>   1</c></rc>
    <rc><c>Si</c><c>   1</c></rc>
    <rc><c>Si</c><c>   1</c></rc>
    <rc><c>Si</c><c>   1</c></rc>
    <rc><c>Si</c><c>   1</c></rc>
    <rc><c>Si</c><c>   1</c></rc>
    <rc><c>Si</c><c>   1</c></rc>
    <rc><c>Si</c><c>   1</c></rc>
    <rc><c>Si</c><c>   1</c></rc>
    <rc><c>Si</c><c>   1</c></rc>
    <rc><c>Si</c><c>   1</c></rc>
    <rc><c>Si</c><c>   1</c></rc>
    <rc><c>Si</c><c>   1</c></rc>
    <rc><c>Si</c><c>   1</c></rc>
    <rc><c>Si</c><c>   1</c></rc>
    <rc><c>Si</c><c>   1</c></rc>
    <rc><c>Si</c><c>   1</c></rc>
    <rc><c>Si</c><c>   1</c></rc>
    <rc><c>Si</c><c>   1</c></rc>
    <rc><c>Si</c><c>   1</c></rc>
    <rc><c>Si</c><c>   1</c></rc>
    <rc><c>Si</c><c>   1</c></rc>
    <rc><c>Si</c><c>   1</c></rc>
    <rc><c>Si</c><c>   1</c></rc>
    <rc><c>Si</c><c>   1</c></rc>
    <rc><c>Si</c><c>   1</c></rc>
    <rc><c>Si</c><c>   1</c></rc>
    <rc><c>Si</c><c>   1</c></rc>
    <rc><c>Si</c><c>   1</c></rc>
    <rc><c>Si</c><c>   1</c></rc>
    <rc><c>Si</c><c>   1</c></rc>
   </set>
  </array>
  <array name="atomtypes" >
   <dimension dim="1">type</dimension>
   <field type="int">atomspertype</field>
   <field type="string">element</field>
   <field>mass</field>
   <field>valence</field>
   <field type="string">pseudopotential</field>
   <set>
    <rc><c>  64</c><c>Si</c><c>     28.08500000</c><c>      4.00000000</c><c>  PAW_PBE Si 05Jan2001                  </c></rc>
   </set>
  </array>
 </atominfo>
 <structure name="initialpos" >
  <crystal>
   <varray name="basis" >
    <v>      10.93252578       0.00000000       0.00000000 </v>
    <v>       0.00000000      10.93252578       0.00000000 </v>
    <v>       0.00000000       0.00000000      10.93252578 </v>
   </varray>
   <i name="volume">   1306.65679237 </i>
   <varray name="rec_basis" >
    <v>       0.09147017       0.00000000       0.00000000 </v>
    <v>       0.00000000       0.09147017       0.00000000 </v>
    <v>       0.00000000       0.00000000       0.09147017 </v>
   </varray>
  </crystal>
  <varray name="positions" >
   <v>       0.44024411       0.43750000       0.43750000 </v>
   <v>       0.93750000       0.43750000       0.43750000 </v>
   <v>       0.43750000       0.93750000       0.43750000 </v>
   <v>       0.93750000       0.93750000       0.43750000 </v>
   <v>       0.43750000       0.43750000       0.93750000 </v>
   <v>       0.93750000       0.43750000       0.93750000 </v>
   <v>       0.43750000       0.93750000       0.93750000 </v>
   <v>       0.93750000       0.93750000       0.93750000 </v>
   <v>       0.43750000       0.18750000       0.18750000 </v>
   <v>       0.93750000       0.18750000       0.18750000 </v>
   <v>       0.43750000       0.68750000       0.18750000 </v>
   <v>       0.93750000       0.68750000       0.18750000 </v>
   <v>       0.43750000       0.18750000       0.68750000 </v>
   <v>       0.93750000       0.18750000       0.68750000 </v>
   <v>       0.43750000       0.68750000       0.68750000 </v>
   <v>       0.93750000       0.68750000       0.68750000 </v>
   <v>       0.18750000       0.43750000       0.18750000 </v>
   <v>       0.68750000       0.43750000       0.18750000 </v>
   <v>       0.18750000       0.93750000       0.18750000 </v>
   <v>       0.68750000       0.93750000       0.18750000 </v>
   <v>       0.18750000       0.43750000       0.68750000 </v>
   <v>       0.68750000       0.43750000       0.68750000 </v>
   <v>       0.18750000       0.93750000       0.68750000 </v>
   <v>       0.68750000       0.93750000       0.68750000 </v>
   <v>       0.18750000       0.18750000       0.43750000 </v>
   <v>       0.68750000       0.18750000       0.43750000 </v>
   <v>       0.18750000       0.68750000       0.43750000 </v>
   <v>       0.68750000       0.68750000       0.43750000 </v>
   <v>       0.18750000       0.18750000       0.93750000 </v>
   <v>       0.68750000       0.18750000       0.93750000 </v>
   <v>       0.18750000       0.68750000       0.93750000 </v>
   <v>       0.68750000       0.68750000       0.93750000 </v>
   <v>       0.06250000       0.06250000       0.06250000 </v>
   <v>       0.56250000       0.06250000       0.06250000 </v>
   <v>       0.06250000       0.56250000       0.06250000 </v>
   <v>       0.56250000       0.56250000       0.06250000 </v>
   <v>       0.06250000       0.06250000       0.56250000 </v>
   <v>       0.56250000       0.06250000       0.56250000 </v>
   <v>       0.06250000       0.56250000       0.56250000 </v>
   <v>       0.56250000       0.55975589       0.56250000 </v>
   <v>       0.06250000       0.31250000       0.31250000 </v>
   <v>       0.56250000       0.31250000       0.31250000 </v>
   <v>       0.06250000       0.81250000       0.31250000 </v>
   <v>       0.56250000       0.81250000       0.31250000 </v>
   <v>       0.06250000       0.31250000       0.81250000 </v>
   <v>       0.56250000       0.31250000       0.81250000 </v>
   <v>       0.06250000       0.81250000       0.81250000 </v>
   <v>       0.56250000       0.81250000       0.81250000 </v>
   <v>       0.31250000       0.06250000       0.31250000 </v>
   <v>       0.81250000       0.06250000       0.31250000 </v>
   <v>       0.31250000       0.56250000       0.31250000 </v>
   <v>       0.81250000       0.56250000       0.31250000 </v>
   <v>       0.31250000       0.06250000       0.81250000 </v>
   <v>       0.81250000       0.06250000       0.81250000 </v>
   <v>       0.31250000       0.56250000       0.81250000 </v>
   <v>       0.81250000       0.56250000       0.81250000 </v>
   <v>       0.31250000       0.31250000       0.06250000 </v>
   <v>       0.81250000       0.31250000       0.06250000 </v>
   <v>       0.31250000       0.81250000       0.06250000 </v>
   <v>       0.81250000       0.81250000       0.06250000 </v>
   <v>       0.31250000       0.31250000       0.56250000 </v>
   <v>       0.81250000       0.31250000       0.56250000 </v>
   <v>       0.31250000       0.81250000       0.56250000 </v>
   <v>       0.81250000       0.81250000       0.56250000 </v>
  </varray>
 </structure>
 <calculation>
  <scstep>
   <time name="dav">    3.39    3.40</time>
   <time name="total">    3.59    3.61</time>
   <energy>
    <i name="alphaZ">    105.52440745 </i>
    <i name="ewald">  -7265.45545732 </i>
    <i name="hartreedc">   -361.72001461 </i>
    <i name="XCdc">   -597.75684769 </i>
    <i name="pawpsdc">   5639.92317535 </i>
    <i name="pawaedc">  -4513.95313856 </i>
    <i name="eentropy">     -0.00853767 </i>
    <i name="bandstr">    858.21314108 </i>
    <i name="atom">   6596.14994790 </i>
    <i name="e_fr_energy">    460.91667595 </i>
    <i name="e_wo_entrp">    460.92521362 </i>
    <i name="e_0_energy">    460.92094478 </i>
   </energy>
  </scstep>
  <scstep>
   <time name="dav">    3.85    3.86</time>
   <time name="total">    3.85    3.86</time>
   <energy>
    <i name="e_fr_energy">   -298.35047375 </i>
    <i name="e_wo_entrp">   -298.35047375 </i>
    <i name="e_0_energy">   -298.35047375 </i>
   </energy>
  </scstep>
  <scstep>
   <time name="dav">    3.94    3.94</time>
   <time name="total">    3.94    3.97</time>
   <energy>
    <i name="e_fr_energy">   -350.96220636 </i>
    <i name="e_wo_entrp">   -350.96220636 </i>
    <i name="e_0_energy">   -350.96220636 </i>
   </energy>
  </scstep>
  <scstep>
   <time name="dav">    3.89    3.90</time>
   <time name="total">    3.89    3.91</time>
   <energy>
    <i name="e_fr_energy">   -352.26169933 </i>
    <i name="e_wo_entrp">   -352.26169933 </i>
    <i name="e_0_energy">   -352.26169933 </i>
   </energy>
  </scstep>
  <scstep>
   <time name="dav">    3.92    3.93</time>
   <time name="total">    4.16    4.17</time>
   <energy>
    <i name="e_fr_energy">   -352.31135968 </i>
    <i name="e_wo_entrp">   -352.31135968 </i>
    <i name="e_0_energy">   -352.31135968 </i>
   </energy>
  </scstep>
  <scstep>
   <time name="dav">    3.76    3.77</time>
   <time name="total">    4.20    4.21</time>
   <energy>
    <i name="e_fr_energy">   -348.58260262 </i>
    <i name="e_wo_entrp">   -348.58260262 </i>
    <i name="e_0_energy">   -348.58260262 </i>
   </energy>
  </scstep>
  <scstep>
   <time name="dav">    3.76    3.77</time>
   <time name="total">    4.19    4.21</time>
   <energy>
    <i name="e_fr_energy">   -346.86978753 </i>
    <i name="e_wo_entrp">   -346.86978753 </i>
    <i name="e_0_energy">   -346.86978753 </i>
   </energy>
  </scstep>
  <scstep>
   <time name="dav">    3.82    3.83</time>
   <time name="total">    4.26    4.28</time>
   <energy>
    <i name="e_fr_energy">   -346.89612001 </i>
    <i name="e_wo_entrp">   -346.89612001 </i>
    <i name="e_0_energy">   -346.89612001 </i>
   </energy>
  </scstep>
  <scstep>
   <time name="dav">    3.96    3.97</time>
   <time name="total">    4.40    4.43</time>
   <energy>
    <i name="e_fr_energy">   -346.90279458 </i>
    <i name="e_wo_entrp">   -346.90279458 </i>
    <i name="e_0_energy">   -346.90279458 </i>
   </energy>
  </scstep>
  <scstep>
   <time name="dav">    3.70    3.71</time>
   <time name="total">    4.13    4.15</time>
   <energy>
    <i name="e_fr_energy">   -346.90486192 </i>
    <i name="e_wo_entrp">   -346.90486192 </i>
    <i name="e_0_energy">   -346.90486192 </i>
   </energy>
  </scstep>
  <scstep>
   <time name="dav">    3.88    3.89</time>
   <time name="total">    4.32    4.33</time>
   <energy>
    <i name="e_fr_energy">   -346.90483386 </i>
    <i name="e_wo_entrp">   -346.90483386 </i>
    <i name="e_0_energy">   -346.90483386 </i>
   </energy>
  </scstep>
  <scstep>
   <time name="dav">    3.86    3.87</time>
   <time name="total">    4.29    4.31</time>
   <energy>
    <i name="e_fr_energy">   -346.90484979 </i>
    <i name="e_wo_entrp">   -346.90484979 </i>
    <i name="e_0_energy">   -346.90484979 </i>
   </energy>
  </scstep>
  <scstep>
   <time name="dav">    3.81    3.82</time>
   <time name="total">    4.24    4.26</time>
   <energy>
    <i name="e_fr_energy">   -346.90485012 </i>
    <i name="e_wo_entrp">   -346.90485012 </i>
    <i name="e_0_energy">   -346.90485012 </i>
   </energy>
  </scstep>
  <scstep>
   <time name="dav">    3.86    3.88</time>
   <time name="total">    4.30    4.32</time>
   <energy>
    <i name="e_fr_energy">   -346.90485068 </i>
    <i name="e_wo_entrp">   -346.90485068 </i>
    <i name="e_0_energy">   -346.90485068 </i>
   </energy>
  </scstep>
  <scstep>
   <time name="dav">    3.45    3.45</time>
   <time name="total">    3.89    4.53</time>
   <energy>
    <i name="e_fr_energy">   -346.90485043 </i>
    <i name="e_wo_entrp">   -346.90485043 </i>
    <i name="e_0_energy">   -346.90485043 </i>
   </energy>
  </scstep>
  <scstep>
   <time name="dav">    2.62    2.63</time>
   <time name="total">    3.06    3.07</time>
   <energy>
    <i name="e_fr_energy">   -346.90485051 </i>
    <i name="e_wo_entrp">   -346.90485051 </i>
    <i name="e_0_energy">   -346.90485051 </i>
   </energy>
  </scstep>
  <scstep>
   <time name="dav">    2.61    2.61</time>
   <time name="total">    3.04    3.05</time>
   <energy>
    <i name="e_fr_energy">   -346.90485050 </i>
    <i name="e_wo_entrp">   -346.90485050 </i>
    <i name="e_0_energy">   -346.90485050 </i>
   </energy>
  </scstep>
  <scstep>
   <time name="dav">    2.61    2.61</time>
   <time name="total">    2.80    2.81</time>
   <energy>
    <i name="alphaZ">    105.52440745 </i>
    <i name="ewald">  -7265.45545732 </i>
    <i name="hartreedc">   -485.15288706 </i>
    <i name="XCdc">   -577.61182042 </i>
    <i name="pawpsdc">  27883.88815162 </i>
    <i name="pawaedc"> -26764.60633250 </i>
    <i name="eentropy">      0.00000000 </i>
    <i name="bandstr">    160.35913981 </i>
    <i name="atom">   6596.14994790 </i>
    <i name="e_fr_energy">   -346.90485051 </i>
    <i name="e_wo_entrp">   -346.90485051 </i>
    <i name="e_0_energy">   -346.90485051 </i>
   </energy>
  </scstep>
  <structure>
   <crystal>
    <varray name="basis" >
     <v>      10.93252578       0.00000000       0.00000000 </v>
     <v>       0.00000000      10.93252578       0.00000000 </v>
     <v>       0.00000000       0.00000000      10.93252578 </v>
    </varray>
    <i name="volume">   1306.65679237 </i>
    <varray name="rec_basis" >
     <v>       0.09147017       0.00000000       0.00000000 </v>
     <v>       0.00000000       0.09147017       0.00000000 </v>
     <v>       0.00000000       0.00000000       0.09147017 </v>
    </varray>
   </crystal>
   <varray name="positions" >
    <v>       0.44024411       0.43750000       0.43750000 </v>
    <v>       0.93750000       0.43750000       0.43750000 </v>
    <v>       0.43750000       0.93750000       0.43750000 </v>
    <v>       0.93750000       0.93750000       0.43750000 </v>
    <v>       0.43750000       0.43750000       0.93750000 </v>
    <v>       0.93750000       0.43750000       0.93750000 </v>
    <v>       0.43750000       0.93750000       0.93750000 </v>
    <v>       0.93750000       0.93750000       0.93750000 </v>
    <v>       0.43750000       0.18750000       0.18750000 </v>
    <v>       0.93750000       0.18750000       0.18750000 </v>
    <v>       0.43750000       0.68750000       0.18750000 </v>
    <v>       0.93750000       0.68750000       0.18750000 </v>
    <v>       0.43750000       0.18750000       0.68750000 </v>
    <v>       0.93750000       0.18750000       0.68750000 </v>
    <v>       0.43750000       0.68750000       0.68750000 </v>
    <v>       0.93750000       0.68750000       0.68750000 </v>
    <v>       0.18750000       0.43750000       0.18750000 </v>
    <v>       0.68750000       0.43750000       0.18750000 </v>
    <v>       0.18750000       0.93750000       0.18750000 </v>
    <v>       0.68750000       0.93750000       0.18750000 </v>
    <v>       0.18750000       0.43750000       0.68750000 </v>
    <v>       0.68750000       0.43750000       0.68750000 </v>
    <v>       0.18750000       0.93750000       0.68750000 </v>
    <v>       0.68750000       0.93750000       0.68750000 </v>
    <v>       0.18750000       0.18750000       0.43750000 </v>
    <v>       0.68750000       0.18750000       0.43750000 </v>
    <v>       0.18750000       0.68750000       0.43750000 </v>
    <v>       0.68750000       0.68750000       0.43750000 </v>
    <v>       0.18750000       0.18750000       0.93750000 </v>
    <v>       0.68750000       0.18750000       0.93750000 </v>
    <v>       0.18750000       0.68750000       0.93750000 </v>
    <v>       0.68750000       0.68750000       0.93750000 </v>
    <v>       0.06250000       0.06250000       0.06250000 </v>
    <v>       0.56250000       0.06250000       0.06250000 </v>
    <v>       0.06250000       0.56250000       0.06250000 </v>
    <v>       0.56250000       0.56250000       0.06250000 </v>
    <v>       0.06250000       0.06250000       0.56250000 </v>
    <v>       0.56250000       0.06250000       0.56250000 </v>
    <v>       0.06250000       0.56250000       0.56250000 </v>
    <v>       0.56250000       0.55975589       0.56250000 </v>
    <v>       0.06250000       0.31250000       0.31250000 </v>
    <v>       0.56250000       0.31250000       0.31250000 </v>
    <v>       0.06250000       0.81250000       0.31250000 </v>
    <v>       0.56250000       0.81250000       0.31250000 </v>
    <v>       0.06250000       0.31250000       0.81250000 </v>
    <v>       0.56250000       0.31250000       0.81250000 </v>
    <v>       0.06250000       0.81250000       0.81250000 </v>
    <v>       0.56250000       0.81250000       0.81250000 </v>
    <v>       0.31250000       0.06250000       0.31250000 </v>
    <v>       0.81250000       0.06250000       0.31250000 </v>
    <v>       0.31250000       0.56250000       0.31250000 </v>
    <v>       0.81250000       0.56250000       0.31250000 </v>
    <v>       0.31250000       0.06250000       0.81250000 </v>
    <v>       0.81250000       0.06250000       0.81250000 </v>
    <v>       0.31250000       0.56250000       0.81250000 </v>
    <v>       0.81250000       0.56250000       0.81250000 </v>
    <v>       0.31250000       0.31250000       0.06250000 </v>
    <v>       0.81250000       0.31250000       0.06250000 </v>
    <v>       0.31250000       0.81250000       0.06250000 </v>
    <v>       0.81250000       0.81250000       0.06250000 </v>
    <v>       0.31250000       0.31250000       0.56250000 </v>
    <v>       0.81250000       0.31250000       0.56250000 </v>
    <v>       0.31250000       0.81250000       0.56250000 </v>
    <v>       0.81250000       0.81250000       0.56250000 </v>
   </varray>
  </structure>
  <varray name="forces" >
   <v>      -0.45860560      -0.10123655      -0.07381860 </v>
   <v>      -0.00037587       0.00147517      -0.00120921 </v>
   <v>       0.00040976       0.00027704      -0.00090675 </v>
   <v>      -0.00077505      -0.00062014      -0.00067802 </v>
   <v>       0.00010493       0.00146839      -0.00091460 </v>
   <v>      -0.00087356      -0.00620865      -0.00069105 </v>
   <v>      -0.01219949      -0.00061326      -0.00058353 </v>
   <v>      -0.00018152       0.00053643      -0.00075018 </v>
   <v>      -0.01215658       0.00214358       0.00215148 </v>
   <v>       0.00072195       0.00075967      -0.00051293 </v>
   <v>      -0.01149637       0.00407405      -0.00354136 </v>
   <v>       0.00068529      -0.00589532      -0.00090703 </v>
   <v>      -0.01187715      -0.00239274       0.00176329 </v>
   <v>       0.00064115      -0.00089078      -0.00048191 </v>
   <v>       0.04808478      -0.09572295      -0.06382889 </v>
   <v>       0.00086380       0.00120221      -0.00146681 </v>
   <v>       0.00633968      -0.00890835       0.00620841 </v>
   <v>       0.00700543      -0.00129795      -0.00475606 </v>
   <v>       0.00176917       0.00030903      -0.00110160 </v>
   <v>       0.00167552      -0.00084920       0.00244298 </v>
   <v>       0.00657058       0.00414450      -0.00436413 </v>
   <v>       0.07193458      -0.09296145       0.07165067 </v>
   <v>       0.00162512      -0.00039591       0.00253624 </v>
   <v>       0.00192333       0.00050398      -0.00093794 </v>
   <v>       0.00502870       0.00489720      -0.00201264 </v>
   <v>       0.00490035      -0.00540339      -0.00188835 </v>
   <v>       0.00477521      -0.00415552       0.00393292 </v>
   <v>      -0.05514706      -0.08734683       0.06360988 </v>
   <v>       0.00027767      -0.00132277       0.00051511 </v>
   <v>       0.00031760       0.00118749       0.00041071 </v>
   <v>       0.00035290      -0.00425245       0.00089327 </v>
   <v>      -0.00021114      -0.00039641       0.00112566 </v>
   <v>      -0.00053643       0.00018152       0.00075018 </v>
   <v>       0.00620865       0.00087356       0.00069105 </v>
   <v>       0.00061326       0.01219949       0.00058353 </v>
   <v>      -0.00146839      -0.00010493       0.00091460 </v>
   <v>       0.00062014       0.00077505       0.00067802 </v>
   <v>      -0.00147517       0.00037587       0.00120921 </v>
   <v>      -0.00027704      -0.00040976       0.00090675 </v>
   <v>       0.10123655       0.45860560       0.07381860 </v>
   <v>      -0.00050398      -0.00192333       0.00093794 </v>
   <v>       0.09296145      -0.07193458      -0.07165067 </v>
   <v>       0.00039591      -0.00162512      -0.00253624 </v>
   <v>      -0.00414450      -0.00657058       0.00436413 </v>
   <v>       0.00084920      -0.00167552      -0.00244298 </v>
   <v>       0.00129795      -0.00700543       0.00475606 </v>
   <v>      -0.00030903      -0.00176917       0.00110160 </v>
   <v>       0.00890835      -0.00633968      -0.00620841 </v>
   <v>      -0.00120221      -0.00086380       0.00146681 </v>
   <v>       0.00089078      -0.00064115       0.00048191 </v>
   <v>       0.09572295      -0.04808478       0.06382889 </v>
   <v>       0.00239274       0.01187715      -0.00176329 </v>
   <v>       0.00589532      -0.00068529       0.00090703 </v>
   <v>      -0.00075967      -0.00072195       0.00051293 </v>
   <v>      -0.00407405       0.01149637       0.00354136 </v>
   <v>      -0.00214358       0.01215658      -0.00215148 </v>
   <v>       0.00039641       0.00021114      -0.00112566 </v>
   <v>      -0.00118749      -0.00031760      -0.00041071 </v>
   <v>       0.00425245      -0.00035290      -0.00089327 </v>
   <v>       0.00132277      -0.00027767      -0.00051511 </v>
   <v>       0.08734683       0.05514706      -0.06360988 </v>
   <v>       0.00540339      -0.00490035       0.00188835 </v>
   <v>       0.00415552      -0.00477521      -0.00393292 </v>
   <v>      -0.00489720      -0.00502870       0.00201264 </v>
  </varray>
  <varray name="stress" >
   <v>       0.00790028       0.00579552       0.34462595 </v>
   <v>       0.00579552       0.00790028       0.34462595 </v>
   <v>       0.34462593       0.34462593       0.03282582 </v>
  </varray>
  <energy>
   <i name="e_fr_energy">   -346.90485051 </i>
   <i name="e_wo_entrp">   -346.90485051 </i>
   <i name="e_0_energy">      0.00000000 </i>
  </energy>
  <time name="totalsc">   79.20   80.14</time>
  <eigenvalues>
   <array>
    <dimension dim="1">band</dimension>
    <dimension dim="2">kpoint</dimension>
    <dimension dim="3">spin</dimension>
    <field>eigene</field>
    <field>occ</field>
    <set>
     <set comment="spin 1">
      <set comment="kpoint 1">
       <r>   -5.9931    1.0000 </r>
       <r>   -5.4694    1.0000 </r>
       <r>   -5.4637    1.0000 </r>
       <r>   -5.4616    1.0000 </r>
       <r>   -4.9698    1.0000 </r>
       <r>   -4.9644    1.0000 </r>
       <r>   -4.9624    1.0000 </r>
       <r>   -4.5314    1.0000 </r>
       <r>   -4.4365    1.0000 </r>
       <r>   -4.4313    1.0000 </r>
       <r>   -4.4286    1.0000 </r>
       <r>   -4.0293    1.0000 </r>
       <r>   -4.0172    1.0000 </r>
       <r>   -4.0155    1.0000 </r>
       <r>   -4.0152    1.0000 </r>
       <r>   -4.0137    1.0000 </r>
       <r>   -4.0108    1.0000 </r>
       <r>   -3.8294    1.0000 </r>
       <r>   -3.8239    1.0000 </r>
       <r>   -3.8217    1.0000 </r>
       <r>   -3.3307    1.0000 </r>
       <r>   -3.3270    1.0000 </r>
       <r>   -3.3221    1.0000 </r>
       <r>   -2.9652    1.0000 </r>
       <r>   -2.9576    1.0000 </r>
       <r>   -2.9560    1.0000 </r>
       <r>   -2.8015    1.0000 </r>
       <r>   -2.7919    1.0000 </r>
       <r>   -2.7899    1.0000 </r>
       <r>   -2.7894    1.0000 </r>
       <r>   -2.7880    1.0000 </r>
       <r>   -2.7861    1.0000 </r>
       <r>   -1.2567    1.0000 </r>
       <r>   -1.2508    1.0000 </r>
       <r>   -1.2478    1.0000 </r>
       <r>   -1.2465    1.0000 </r>
       <r>   -1.2463    1.0000 </r>
       <r>   -1.2429    1.0000 </r>
       <r>   -1.1558    1.0000 </r>
       <r>   -1.1485    1.0000 </r>
       <r>   -1.1465    1.0000 </r>
       <r>   -1.0343    1.0000 </r>
       <r>   -1.0322    1.0000 </r>
       <r>   -1.0264    1.0000 </r>
       <r>   -0.9602    1.0000 </r>
       <r>   -0.9466    1.0000 </r>
       <r>   -0.9454    1.0000 </r>
       <r>   -0.2481    1.0000 </r>
       <r>   -0.1670    1.0000 </r>
       <r>   -0.1615    1.0000 </r>
       <r>   -0.1594    1.0000 </r>
       <r>   -0.1576    1.0000 </r>
       <r>   -0.1562    1.0000 </r>
       <r>   -0.1504    1.0000 </r>
       <r>    0.7048    1.0000 </r>
       <r>    0.7144    1.0000 </r>
       <r>    0.7167    1.0000 </r>
       <r>    1.0437    1.0000 </r>
       <r>    1.0475    1.0000 </r>
       <r>    1.0501    1.0000 </r>
       <r>    1.6530    1.0000 </r>
       <r>    1.6546    1.0000 </r>
       <r>    1.6567    1.0000 </r>
       <r>    1.6572    1.0000 </r>
       <r>    1.6595    1.0000 </r>
       <r>    1.6613    1.0000 </r>
       <r>    1.7145    1.0000 </r>
       <r>    1.7169    1.0000 </r>
       <r>    1.7200    1.0000 </r>
       <r>    2.2627    1.0000 </r>
       <r>    2.2671    1.0000 </r>
       <r>    2.2678    1.0000 </r>
       <r>    2.3674    1.0000 </r>
       <r>    2.3682    1.0000 </r>
       <r>    2.3710    1.0000 </r>
       <r>    2.3721    1.0000 </r>
       <r>    2.3765    1.0000 </r>
       <r>    2.3772    1.0000 </r>
       <r>    2.4235    1.0000 </r>
       <r>    2.4284    1.0000 </r>
       <r>    2.4297    1.0000 </r>
       <r>    2.7281    1.0000 </r>
       <r>    2.7342    1.0000 </r>
       <r>    2.7343    1.0000 </r>
       <r>    2.7355    1.0000 </r>
       <r>    2.7366    1.0000 </r>
       <r>    2.7399    1.0000 </r>
       <r>    2.9989    1.0000 </r>
       <r>    2.9999    1.0000 </r>
       <r>    3.0018    1.0000 </r>
       <r>    3.0121    1.0000 </r>
       <r>    3.0152    1.0000 </r>
       <r>    3.0173    1.0000 </r>
       <r>    3.3546    1.0000 </r>
       <r>    3.3615    1.0000 </r>
       <r>    3.3628    1.0000 </r>
       <r>    3.3771    1.0000 </r>
       <r>    3.3834    1.0000 </r>
       <r>    3.3846    1.0000 </r>
       <r>    3.4662    1.0000 </r>
       <r>    3.4669    1.0000 </r>
       <r>    3.4701    1.0000 </r>
       <r>    3.7274    1.0000 </r>
       <r>    3.7381    1.0000 </r>
       <r>    3.7386    1.0000 </r>
       <r>    3.7421    1.0000 </r>
       <r>    3.7425    1.0000 </r>
       <r>    3.7435    1.0000 </r>
       <r>    3.7803    1.0000 </r>
       <r>    3.7808    1.0000 </r>
       <r>    3.7848    1.0000 </r>
       <r>    4.0368    1.0000 </r>
       <r>    4.0983    1.0000 </r>
       <r>    4.0992    1.0000 </r>
       <r>    4.1027    1.0000 </r>
       <r>    4.3414    1.0000 </r>
       <r>    4.3416    1.0000 </r>
       <r>    4.3459    1.0000 </r>
       <r>    4.3940    1.0000 </r>
       <r>    4.4047    1.0000 </r>
       <r>    4.4054    1.0000 </r>
       <r>    4.5617    1.0000 </r>
       <r>    4.5663    1.0000 </r>
       <r>    4.8704    1.0000 </r>
       <r>    4.8708    1.0000 </r>
       <r>    4.8768    1.0000 </r>
       <r>    5.3493    1.0000 </r>
       <r>    5.3547    1.0000 </r>
       <r>    6.5620    0.0000 </r>
       <r>    6.5659    0.0000 </r>
       <r>    6.5671    0.0000 </r>
       <r>    7.0021    0.0000 </r>
       <r>    7.0047    0.0000 </r>
       <r>    7.0088    0.0000 </r>
       <r>    7.2352    0.0000 </r>
       <r>    7.4894    0.0000 </r>
       <r>    7.4918    0.0000 </r>
       <r>    7.4955    0.0000 </r>
       <r>    7.6150    0.0000 </r>
       <r>    7.6168    0.0000 </r>
       <r>    7.6226    0.0000 </r>
       <r>    7.7780    0.0000 </r>
       <r>    7.7785    0.0000 </r>
       <r>    7.7836    0.0000 </r>
       <r>    7.8003    0.0000 </r>
       <r>    7.8012    0.0000 </r>
       <r>    7.8046    0.0000 </r>
       <r>    8.0213    0.0000 </r>
       <r>    8.0237    0.0000 </r>
       <r>    8.0306    0.0000 </r>
       <r>    8.0309    0.0000 </r>
       <r>    8.0315    0.0000 </r>
       <r>    8.0343    0.0000 </r>
       <r>    8.0839    0.0000 </r>
       <r>    8.2937    0.0000 </r>
       <r>    8.2940    0.0000 </r>
       <r>    8.2979    0.0000 </r>
       <r>    8.4931    0.0000 </r>
       <r>    8.5014    0.0000 </r>
       <r>    8.5025    0.0000 </r>
       <r>    8.5038    0.0000 </r>
       <r>    8.5116    0.0000 </r>
       <r>    8.5219    0.0000 </r>
       <r>    8.5471    0.0000 </r>
      </set>
      <set comment="kpoint 2">
       <r>   -5.9932    1.0000 </r>
       <r>   -5.4681    1.0000 </r>
       <r>   -5.4640    1.0000 </r>
       <r>   -5.4623    1.0000 </r>
       <r>   -4.9688    1.0000 </r>
       <r>   -4.9648    1.0000 </r>
       <r>   -4.9631    1.0000 </r>
       <r>   -4.5323    1.0000 </r>
       <r>   -4.4360    1.0000 </r>
       <r>   -4.4315    1.0000 </r>
       <r>   -4.4300    1.0000 </r>
       <r>   -4.0260    1.0000 </r>
       <r>   -4.0179    1.0000 </r>
       <r>   -4.0163    1.0000 </r>
       <r>   -4.0162    1.0000 </r>
       <r>   -4.0141    1.0000 </r>
       <r>   -4.0085    1.0000 </r>
       <r>   -3.8286    1.0000 </r>
       <r>   -3.8244    1.0000 </r>
       <r>   -3.8200    1.0000 </r>
       <r>   -3.3328    1.0000 </r>
       <r>   -3.3268    1.0000 </r>
       <r>   -3.3256    1.0000 </r>
       <r>   -2.9641    1.0000 </r>
       <r>   -2.9591    1.0000 </r>
       <r>   -2.9545    1.0000 </r>
       <r>   -2.7998    1.0000 </r>
       <r>   -2.7927    1.0000 </r>
       <r>   -2.7912    1.0000 </r>
       <r>   -2.7907    1.0000 </r>
       <r>   -2.7880    1.0000 </r>
       <r>   -2.7826    1.0000 </r>
       <r>   -1.2601    1.0000 </r>
       <r>   -1.2512    1.0000 </r>
       <r>   -1.2488    1.0000 </r>
       <r>   -1.2484    1.0000 </r>
       <r>   -1.2453    1.0000 </r>
       <r>   -1.2403    1.0000 </r>
       <r>   -1.1561    1.0000 </r>
       <r>   -1.1511    1.0000 </r>
       <r>   -1.1458    1.0000 </r>
       <r>   -1.0376    1.0000 </r>
       <r>   -1.0329    1.0000 </r>
       <r>   -1.0274    1.0000 </r>
       <r>   -0.9517    1.0000 </r>
       <r>   -0.9460    1.0000 </r>
       <r>   -0.9423    1.0000 </r>
       <r>   -0.2446    1.0000 </r>
       <r>   -0.1708    1.0000 </r>
       <r>   -0.1630    1.0000 </r>
       <r>   -0.1601    1.0000 </r>
       <r>   -0.1595    1.0000 </r>
       <r>   -0.1562    1.0000 </r>
       <r>   -0.1510    1.0000 </r>
       <r>    0.7092    1.0000 </r>
       <r>    0.7149    1.0000 </r>
       <r>    0.7187    1.0000 </r>
       <r>    1.0429    1.0000 </r>
       <r>    1.0474    1.0000 </r>
       <r>    1.0510    1.0000 </r>
       <r>    1.6520    1.0000 </r>
       <r>    1.6542    1.0000 </r>
       <r>    1.6568    1.0000 </r>
       <r>    1.6582    1.0000 </r>
       <r>    1.6590    1.0000 </r>
       <r>    1.6612    1.0000 </r>
       <r>    1.7133    1.0000 </r>
       <r>    1.7163    1.0000 </r>
       <r>    1.7187    1.0000 </r>
       <r>    2.2649    1.0000 </r>
       <r>    2.2676    1.0000 </r>
       <r>    2.2705    1.0000 </r>
       <r>    2.3647    1.0000 </r>
       <r>    2.3669    1.0000 </r>
       <r>    2.3706    1.0000 </r>
       <r>    2.3726    1.0000 </r>
       <r>    2.3743    1.0000 </r>
       <r>    2.3755    1.0000 </r>
       <r>    2.4210    1.0000 </r>
       <r>    2.4254    1.0000 </r>
       <r>    2.4290    1.0000 </r>
       <r>    2.7282    1.0000 </r>
       <r>    2.7332    1.0000 </r>
       <r>    2.7353    1.0000 </r>
       <r>    2.7357    1.0000 </r>
       <r>    2.7374    1.0000 </r>
       <r>    2.7397    1.0000 </r>
       <r>    2.9960    1.0000 </r>
       <r>    2.9999    1.0000 </r>
       <r>    3.0014    1.0000 </r>
       <r>    3.0098    1.0000 </r>
       <r>    3.0138    1.0000 </r>
       <r>    3.0172    1.0000 </r>
       <r>    3.3591    1.0000 </r>
       <r>    3.3617    1.0000 </r>
       <r>    3.3646    1.0000 </r>
       <r>    3.3807    1.0000 </r>
       <r>    3.3847    1.0000 </r>
       <r>    3.3882    1.0000 </r>
       <r>    3.4632    1.0000 </r>
       <r>    3.4672    1.0000 </r>
       <r>    3.4695    1.0000 </r>
       <r>    3.7332    1.0000 </r>
       <r>    3.7399    1.0000 </r>
       <r>    3.7411    1.0000 </r>
       <r>    3.7424    1.0000 </r>
       <r>    3.7434    1.0000 </r>
       <r>    3.7471    1.0000 </r>
       <r>    3.7770    1.0000 </r>
       <r>    3.7813    1.0000 </r>
       <r>    3.7843    1.0000 </r>
       <r>    4.0404    1.0000 </r>
       <r>    4.0946    1.0000 </r>
       <r>    4.0985    1.0000 </r>
       <r>    4.1009    1.0000 </r>
       <r>    4.3370    1.0000 </r>
       <r>    4.3414    1.0000 </r>
       <r>    4.3444    1.0000 </r>
       <r>    4.4016    1.0000 </r>
       <r>    4.4060    1.0000 </r>
       <r>    4.4100    1.0000 </r>
       <r>    4.5588    1.0000 </r>
       <r>    4.5670    1.0000 </r>
       <r>    4.8650    1.0000 </r>
       <r>    4.8705    1.0000 </r>
       <r>    4.8748    1.0000 </r>
       <r>    5.3451    1.0000 </r>
       <r>    5.3544    1.0000 </r>
       <r>    6.5597    0.0000 </r>
       <r>    6.5638    0.0000 </r>
       <r>    6.5666    0.0000 </r>
       <r>    6.9989    0.0000 </r>
       <r>    7.0047    0.0000 </r>
       <r>    7.0096    0.0000 </r>
       <r>    7.2337    0.0000 </r>
       <r>    7.4859    0.0000 </r>
       <r>    7.4907    0.0000 </r>
       <r>    7.4954    0.0000 </r>
       <r>    7.6150    0.0000 </r>
       <r>    7.6197    0.0000 </r>
       <r>    7.6239    0.0000 </r>
       <r>    7.7758    0.0000 </r>
       <r>    7.7798    0.0000 </r>
       <r>    7.7834    0.0000 </r>
       <r>    7.7978    0.0000 </r>
       <r>    7.8021    0.0000 </r>
       <r>    7.8041    0.0000 </r>
       <r>    8.0224    0.0000 </r>
       <r>    8.0286    0.0000 </r>
       <r>    8.0310    0.0000 </r>
       <r>    8.0312    0.0000 </r>
       <r>    8.0331    0.0000 </r>
       <r>    8.0365    0.0000 </r>
       <r>    8.0816    0.0000 </r>
       <r>    8.2914    0.0000 </r>
       <r>    8.2951    0.0000 </r>
       <r>    8.2984    0.0000 </r>
       <r>    8.4905    0.0000 </r>
       <r>    8.5000    0.0000 </r>
       <r>    8.5023    0.0000 </r>
       <r>    8.5080    0.0000 </r>
       <r>    8.5086    0.0000 </r>
       <r>    8.5244    0.0000 </r>
       <r>    8.5407    0.0000 </r>
      </set>
      <set comment="kpoint 3">
       <r>   -5.9933    1.0000 </r>
       <r>   -5.4681    1.0000 </r>
       <r>   -5.4643    1.0000 </r>
       <r>   -5.4617    1.0000 </r>
       <r>   -4.9689    1.0000 </r>
       <r>   -4.9651    1.0000 </r>
       <r>   -4.9628    1.0000 </r>
       <r>   -4.5334    1.0000 </r>
       <r>   -4.4364    1.0000 </r>
       <r>   -4.4323    1.0000 </r>
       <r>   -4.4296    1.0000 </r>
       <r>   -4.0223    1.0000 </r>
       <r>   -4.0194    1.0000 </r>
       <r>   -4.0168    1.0000 </r>
       <r>   -4.0162    1.0000 </r>
       <r>   -4.0125    1.0000 </r>
       <r>   -4.0089    1.0000 </r>
       <r>   -3.8270    1.0000 </r>
       <r>   -3.8250    1.0000 </r>
       <r>   -3.8191    1.0000 </r>
       <r>   -3.3351    1.0000 </r>
       <r>   -3.3290    1.0000 </r>
       <r>   -3.3264    1.0000 </r>
       <r>   -2.9623    1.0000 </r>
       <r>   -2.9607    1.0000 </r>
       <r>   -2.9537    1.0000 </r>
       <r>   -2.7958    1.0000 </r>
       <r>   -2.7946    1.0000 </r>
       <r>   -2.7912    1.0000 </r>
       <r>   -2.7908    1.0000 </r>
       <r>   -2.7887    1.0000 </r>
       <r>   -2.7822    1.0000 </r>
       <r>   -1.2573    1.0000 </r>
       <r>   -1.2540    1.0000 </r>
       <r>   -1.2491    1.0000 </r>
       <r>   -1.2487    1.0000 </r>
       <r>   -1.2473    1.0000 </r>
       <r>   -1.2402    1.0000 </r>
       <r>   -1.1559    1.0000 </r>
       <r>   -1.1535    1.0000 </r>
       <r>   -1.1458    1.0000 </r>
       <r>   -1.0382    1.0000 </r>
       <r>   -1.0336    1.0000 </r>
       <r>   -1.0311    1.0000 </r>
       <r>   -0.9472    1.0000 </r>
       <r>   -0.9460    1.0000 </r>
       <r>   -0.9347    1.0000 </r>
       <r>   -0.2411    1.0000 </r>
       <r>   -0.1699    1.0000 </r>
       <r>   -0.1670    1.0000 </r>
       <r>   -0.1603    1.0000 </r>
       <r>   -0.1599    1.0000 </r>
       <r>   -0.1590    1.0000 </r>
       <r>   -0.1530    1.0000 </r>
       <r>    0.7119    1.0000 </r>
       <r>    0.7146    1.0000 </r>
       <r>    0.7231    1.0000 </r>
       <r>    1.0441    1.0000 </r>
       <r>    1.0467    1.0000 </r>
       <r>    1.0504    1.0000 </r>
       <r>    1.6513    1.0000 </r>
       <r>    1.6548    1.0000 </r>
       <r>    1.6565    1.0000 </r>
       <r>    1.6571    1.0000 </r>
       <r>    1.6595    1.0000 </r>
       <r>    1.6619    1.0000 </r>
       <r>    1.7122    1.0000 </r>
       <r>    1.7144    1.0000 </r>
       <r>    1.7182    1.0000 </r>
       <r>    2.2674    1.0000 </r>
       <r>    2.2690    1.0000 </r>
       <r>    2.2723    1.0000 </r>
       <r>    2.3622    1.0000 </r>
       <r>    2.3666    1.0000 </r>
       <r>    2.3698    1.0000 </r>
       <r>    2.3715    1.0000 </r>
       <r>    2.3726    1.0000 </r>
       <r>    2.3746    1.0000 </r>
       <r>    2.4196    1.0000 </r>
       <r>    2.4218    1.0000 </r>
       <r>    2.4272    1.0000 </r>
       <r>    2.7290    1.0000 </r>
       <r>    2.7335    1.0000 </r>
       <r>    2.7349    1.0000 </r>
       <r>    2.7355    1.0000 </r>
       <r>    2.7377    1.0000 </r>
       <r>    2.7399    1.0000 </r>
       <r>    2.9948    1.0000 </r>
       <r>    2.9988    1.0000 </r>
       <r>    3.0003    1.0000 </r>
       <r>    3.0099    1.0000 </r>
       <r>    3.0124    1.0000 </r>
       <r>    3.0149    1.0000 </r>
       <r>    3.3612    1.0000 </r>
       <r>    3.3647    1.0000 </r>
       <r>    3.3652    1.0000 </r>
       <r>    3.3845    1.0000 </r>
       <r>    3.3866    1.0000 </r>
       <r>    3.3913    1.0000 </r>
       <r>    3.4625    1.0000 </r>
       <r>    3.4664    1.0000 </r>
       <r>    3.4677    1.0000 </r>
       <r>    3.7399    1.0000 </r>
       <r>    3.7404    1.0000 </r>
       <r>    3.7414    1.0000 </r>
       <r>    3.7423    1.0000 </r>
       <r>    3.7474    1.0000 </r>
       <r>    3.7514    1.0000 </r>
       <r>    3.7758    1.0000 </r>
       <r>    3.7804    1.0000 </r>
       <r>    3.7822    1.0000 </r>
       <r>    4.0442    1.0000 </r>
       <r>    4.0919    1.0000 </r>
       <r>    4.0969    1.0000 </r>
       <r>    4.0985    1.0000 </r>
       <r>    4.3357    1.0000 </r>
       <r>    4.3406    1.0000 </r>
       <r>    4.3412    1.0000 </r>
       <r>    4.4061    1.0000 </r>
       <r>    4.4076    1.0000 </r>
       <r>    4.4176    1.0000 </r>
       <r>    4.5593    1.0000 </r>
       <r>    4.5641    1.0000 </r>
       <r>    4.8626    1.0000 </r>
       <r>    4.8693    1.0000 </r>
       <r>    4.8704    1.0000 </r>
       <r>    5.3448    1.0000 </r>
       <r>    5.3500    1.0000 </r>
       <r>    6.5585    0.0000 </r>
       <r>    6.5616    0.0000 </r>
       <r>    6.5653    0.0000 </r>
       <r>    6.9976    0.0000 </r>
       <r>    7.0057    0.0000 </r>
       <r>    7.0079    0.0000 </r>
       <r>    7.2322    0.0000 </r>
       <r>    7.4839    0.0000 </r>
       <r>    7.4903    0.0000 </r>
       <r>    7.4931    0.0000 </r>
       <r>    7.6162    0.0000 </r>
       <r>    7.6223    0.0000 </r>
       <r>    7.6241    0.0000 </r>
       <r>    7.7735    0.0000 </r>
       <r>    7.7816    0.0000 </r>
       <r>    7.7823    0.0000 </r>
       <r>    7.7971    0.0000 </r>
       <r>    7.8017    0.0000 </r>
       <r>    7.8036    0.0000 </r>
       <r>    8.0268    0.0000 </r>
       <r>    8.0294    0.0000 </r>
       <r>    8.0306    0.0000 </r>
       <r>    8.0335    0.0000 </r>
       <r>    8.0351    0.0000 </r>
       <r>    8.0377    0.0000 </r>
       <r>    8.0795    0.0000 </r>
       <r>    8.2908    0.0000 </r>
       <r>    8.2962    0.0000 </r>
       <r>    8.2973    0.0000 </r>
       <r>    8.4937    0.0000 </r>
       <r>    8.5000    0.0000 </r>
       <r>    8.5028    0.0000 </r>
       <r>    8.5055    0.0000 </r>
       <r>    8.5081    0.0000 </r>
       <r>    8.5364    0.0000 </r>
       <r>    8.5638    0.0000 </r>
      </set>
     </set>
    </set>
   </array>
  </eigenvalues>
  <separator name="orbital magnetization" >
   <v name="MAGDIPOLOUT">      0.00000000      0.00000000      0.00000000</v>
  </separator>
  <dos>
   <i name="efermi">      5.61202744 </i>
   <total>
    <array>
     <dimension dim="1">gridpoints</dimension>
     <dimension dim="2">spin</dimension>
     <field>energy</field>
     <field>total</field>
     <field>integrated</field>
     <set>
      <set comment="spin 1">
       <r>    -6.7211     0.0000     0.0000 </r>
       <r>    -6.6677     0.0000     0.0000 </r>
       <r>    -6.6144     0.0000     0.0000 </r>
       <r>    -6.5610     0.0000     0.0000 </r>
       <r>    -6.5076     0.0000     0.0000 </r>
       <r>    -6.4542     0.0000     0.0000 </r>
       <r>    -6.4009     0.0000     0.0000 </r>
       <r>    -6.3475     0.0000     0.0000 </r>
       <r>    -6.2941     0.0000     0.0000 </r>
       <r>    -6.2407     0.0000     0.0000 </r>
       <r>    -6.1874     0.0000     0.0000 </r>
       <r>    -6.1340     0.0013     0.0001 </r>
       <r>    -6.0806     0.2503     0.0134 </r>
       <r>    -6.0272     6.0393     0.3358 </r>
       <r>    -5.9738    20.2329     1.4157 </r>
       <r>    -5.9205    10.2026     1.9603 </r>
       <r>    -5.8671     0.7370     1.9996 </r>
       <r>    -5.8137     0.0068     2.0000 </r>
       <r>    -5.7603     0.0000     2.0000 </r>
       <r>    -5.7070     0.0000     2.0000 </r>
       <r>    -5.6536     0.0000     2.0000 </r>
       <r>    -5.6002     0.0075     2.0004 </r>
       <r>    -5.5468     1.1553     2.0621 </r>
       <r>    -5.4935    22.3747     3.2563 </r>
       <r>    -5.4401    61.5565     6.5420 </r>
       <r>    -5.3867    25.7618     7.9170 </r>
       <r>    -5.3333     1.5430     7.9994 </r>
       <r>    -5.2800     0.0117     8.0000 </r>
       <r>    -5.2266     0.0000     8.0000 </r>
       <r>    -5.1732     0.0000     8.0000 </r>
       <r>    -5.1198     0.0008     8.0000 </r>
       <r>    -5.0665     0.2482     8.0133 </r>
       <r>    -5.0131     9.8732     8.5403 </r>
       <r>    -4.9597    53.4494    11.3932 </r>
       <r>    -4.9063    43.5110    13.7156 </r>
       <r>    -4.8530     5.2443    13.9955 </r>
       <r>    -4.7996     0.0836    14.0000 </r>
       <r>    -4.7462     0.0002    14.0000 </r>
       <r>    -4.6928     0.0001    14.0000 </r>
       <r>    -4.6395     0.0458    14.0025 </r>
       <r>    -4.5861     2.3631    14.1286 </r>
       <r>    -4.5327    16.4340    15.0058 </r>
       <r>    -4.4793    26.5991    16.4255 </r>
       <r>    -4.4260    56.3770    19.4347 </r>
       <r>    -4.3726    42.9309    21.7261 </r>
       <r>    -4.3192     5.0517    21.9958 </r>
       <r>    -4.2658     0.0788    22.0000 </r>
       <r>    -4.2124     0.0002    22.0000 </r>
       <r>    -4.1591     0.0076    22.0004 </r>
       <r>    -4.1057     1.4110    22.0757 </r>
       <r>    -4.0523    34.1147    23.8966 </r>
       <r>    -3.9989   119.2036    30.2592 </r>
       <r>    -3.9456    64.8323    33.7197 </r>
       <r>    -3.8922     8.3481    34.1653 </r>
       <r>    -3.8388    35.3176    36.0504 </r>
       <r>    -3.7854    58.6201    39.1792 </r>
       <r>    -3.7321    14.8490    39.9718 </r>
       <r>    -3.6787     0.5255    39.9999 </r>
       <r>    -3.6253     0.0023    40.0000 </r>
       <r>    -3.5719     0.0000    40.0000 </r>
       <r>    -3.5186     0.0000    40.0000 </r>
       <r>    -3.4652     0.0067    40.0004 </r>
       <r>    -3.4118     1.0574    40.0568 </r>
       <r>    -3.3584    21.3098    41.1942 </r>
       <r>    -3.3051    61.3034    44.4663 </r>
       <r>    -3.2517    27.0002    45.9075 </r>
       <r>    -3.1983     1.7190    45.9992 </r>
       <r>    -3.1449     0.0141    46.0000 </r>
       <r>    -3.0916     0.0112    46.0006 </r>
       <r>    -3.0382     1.4778    46.0795 </r>
       <r>    -2.9848    25.0673    47.4175 </r>
       <r>    -2.9314    61.4592    50.6979 </r>
       <r>    -2.8781    24.7729    52.0202 </r>
       <r>    -2.8247    38.1858    54.0584 </r>
       <r>    -2.7713   120.5764    60.4942 </r>
       <r>    -2.7179    61.0647    63.7536 </r>
       <r>    -2.6646     4.5715    63.9976 </r>
       <r>    -2.6112     0.0451    64.0000 </r>
       <r>    -2.5578     0.0001    64.0000 </r>
       <r>    -2.5044     0.0000    64.0000 </r>
       <r>    -2.4510     0.0000    64.0000 </r>
       <r>    -2.3977     0.0000    64.0000 </r>
       <r>    -2.3443     0.0000    64.0000 </r>
       <r>    -2.2909     0.0000    64.0000 </r>
       <r>    -2.2375     0.0000    64.0000 </r>
       <r>    -2.1842     0.0000    64.0000 </r>
       <r>    -2.1308     0.0000    64.0000 </r>
       <r>    -2.0774     0.0000    64.0000 </r>
       <r>    -2.0240     0.0000    64.0000 </r>
       <r>    -1.9707     0.0000    64.0000 </r>
       <r>    -1.9173     0.0000    64.0000 </r>
       <r>    -1.8639     0.0000    64.0000 </r>
       <r>    -1.8105     0.0000    64.0000 </r>
       <r>    -1.7572     0.0000    64.0000 </r>
       <r>    -1.7038     0.0000    64.0000 </r>
       <r>    -1.6504     0.0000    64.0000 </r>
       <r>    -1.5970     0.0000    64.0000 </r>
       <r>    -1.5437     0.0000    64.0000 </r>
       <r>    -1.4903     0.0000    64.0000 </r>
       <r>    -1.4369     0.0000    64.0000 </r>
       <r>    -1.3835     0.0192    64.0010 </r>
       <r>    -1.3302     2.6036    64.1400 </r>
       <r>    -1.2768    46.5279    66.6235 </r>
       <r>    -1.2234   124.6461    73.2765 </r>
       <r>    -1.1700    81.2977    77.6159 </r>
       <r>    -1.1167    64.3210    81.0490 </r>
       <r>    -1.0633    38.9723    83.1292 </r>
       <r>    -1.0099    66.2435    86.6650 </r>
       <r>    -0.9565    67.1975    90.2517 </r>
       <r>    -0.9032    57.5780    93.3250 </r>
       <r>    -0.8498    12.2613    93.9795 </r>
       <r>    -0.7964     0.3832    93.9999 </r>
       <r>    -0.7430     0.0015    94.0000 </r>
       <r>    -0.6896     0.0000    94.0000 </r>
       <r>    -0.6363     0.0000    94.0000 </r>
       <r>    -0.5829     0.0000    94.0000 </r>
       <r>    -0.5295     0.0000    94.0000 </r>
       <r>    -0.4761     0.0000    94.0000 </r>
       <r>    -0.4228     0.0000    94.0000 </r>
       <r>    -0.3694     0.0081    94.0004 </r>
       <r>    -0.3160     0.8167    94.0440 </r>
       <r>    -0.2626    11.0974    94.6364 </r>
       <r>    -0.2093    38.6992    96.7020 </r>
       <r>    -0.1559   109.5493   102.5492 </r>
       <r>    -0.1025    89.9943   107.3527 </r>
       <r>    -0.0491    11.9082   107.9884 </r>
       <r>     0.0042     0.2176   108.0000 </r>
       <r>     0.0576     0.0005   108.0000 </r>
       <r>     0.1110     0.0000   108.0000 </r>
       <r>     0.1644     0.0000   108.0000 </r>
       <r>     0.2177     0.0000   108.0000 </r>
       <r>     0.2711     0.0000   108.0000 </r>
       <r>     0.3245     0.0000   108.0000 </r>
       <r>     0.3779     0.0000   108.0000 </r>
       <r>     0.4312     0.0000   108.0000 </r>
       <r>     0.4846     0.0000   108.0000 </r>
       <r>     0.5380     0.0000   108.0000 </r>
       <r>     0.5914     0.0321   108.0017 </r>
       <r>     0.6447     2.8545   108.1541 </r>
       <r>     0.6981    33.6986   109.9528 </r>
       <r>     0.7515    59.1560   113.1103 </r>
       <r>     0.8049    16.0470   113.9668 </r>
       <r>     0.8582     0.6192   113.9998 </r>
       <r>     0.9116     0.0106   114.0004 </r>
       <r>     0.9650     1.1548   114.0620 </r>
       <r>     1.0184    22.3455   115.2547 </r>
       <r>     1.0718    61.5224   118.5386 </r>
       <r>     1.1251    25.8144   119.9164 </r>
       <r>     1.1785     1.5540   119.9994 </r>
       <r>     1.2319     0.0119   120.0000 </r>
       <r>     1.2853     0.0000   120.0000 </r>
       <r>     1.3386     0.0000   120.0000 </r>
       <r>     1.3920     0.0000   120.0000 </r>
       <r>     1.4454     0.0000   120.0000 </r>
       <r>     1.4988     0.0009   120.0000 </r>
       <r>     1.5521     0.3533   120.0189 </r>
       <r>     1.6055    16.3159   120.8898 </r>
       <r>     1.6589   106.6745   126.5836 </r>
       <r>     1.7123   139.4843   134.0287 </r>
       <r>     1.7656    65.0500   137.5008 </r>
       <r>     1.8190     9.1455   137.9889 </r>
       <r>     1.8724     0.2068   138.0000 </r>
       <r>     1.9258     0.0006   138.0000 </r>
       <r>     1.9791     0.0000   138.0000 </r>
       <r>     2.0325     0.0000   138.0000 </r>
       <r>     2.0859     0.0000   138.0000 </r>
       <r>     2.1393     0.0164   138.0009 </r>
       <r>     2.1926     1.9078   138.1027 </r>
       <r>     2.2460    28.5209   139.6250 </r>
       <r>     2.2994    66.1577   143.1562 </r>
       <r>     2.3528    86.0881   147.7513 </r>
       <r>     2.4061   151.9076   155.8594 </r>
       <r>     2.4595    94.9473   160.9273 </r>
       <r>     2.5129    19.3343   161.9593 </r>
       <r>     2.5663     0.7585   161.9998 </r>
       <r>     2.6196     0.1364   162.0071 </r>
       <r>     2.6730     9.0298   162.4891 </r>
       <r>     2.7264    81.9236   166.8618 </r>
       <r>     2.7798   110.4856   172.7590 </r>
       <r>     2.8332    22.6102   173.9659 </r>
       <r>     2.8865     0.7396   174.0053 </r>
       <r>     2.9399     7.3356   174.3969 </r>
       <r>     2.9933    73.2391   178.3061 </r>
       <r>     3.0467   114.2889   184.4063 </r>
       <r>     3.1000    28.7775   185.9424 </r>
       <r>     3.1534     1.0746   185.9997 </r>
       <r>     3.2068     0.0060   186.0000 </r>
       <r>     3.2602     0.2621   186.0140 </r>
       <r>     3.3135    12.1141   186.6606 </r>
       <r>     3.3669    85.4764   191.2230 </r>
       <r>     3.4203   114.4682   197.3328 </r>
       <r>     3.4737    76.7682   201.4304 </r>
       <r>     3.5270    43.1758   203.7349 </r>
       <r>     3.5804     4.8926   203.9961 </r>
       <r>     3.6338     0.3722   204.0159 </r>
       <r>     3.6872    14.7877   204.8052 </r>
       <r>     3.7405   110.0167   210.6775 </r>
       <r>     3.7939   156.4373   219.0274 </r>
       <r>     3.8473    51.9430   221.7999 </r>
       <r>     3.9007     3.7084   221.9979 </r>
       <r>     3.9540     0.3205   222.0150 </r>
       <r>     4.0074     6.9118   222.3839 </r>
       <r>     4.0608    36.2369   224.3181 </r>
       <r>     4.1142    69.3204   228.0181 </r>
       <r>     4.1675    34.3220   229.8501 </r>
       <r>     4.2209     2.8196   230.0006 </r>
       <r>     4.2743     3.3813   230.1810 </r>
       <r>     4.3277    37.9698   232.2077 </r>
       <r>     4.3810    83.8863   236.6852 </r>
       <r>     4.4344    75.2246   240.7004 </r>
       <r>     4.4878    24.4025   242.0029 </r>
       <r>     4.5412    20.2075   243.0815 </r>
       <r>     4.5946    40.7093   245.2543 </r>
       <r>     4.6479    13.3451   245.9667 </r>
       <r>     4.7013     0.6212   245.9998 </r>
       <r>     4.7547     0.0703   246.0036 </r>
       <r>     4.8081     4.5107   246.2443 </r>
       <r>     4.8614    40.8483   248.4246 </r>
       <r>     4.9148    55.2542   251.3739 </r>
       <r>     4.9682    11.4030   251.9825 </r>
       <r>     5.0216     0.3264   251.9999 </r>
       <r>     5.0749     0.0012   252.0000 </r>
       <r>     5.1283     0.0000   252.0000 </r>
       <r>     5.1817     0.0001   252.0000 </r>
       <r>     5.2351     0.0477   252.0025 </r>
       <r>     5.2884     3.1419   252.1703 </r>
       <r>     5.3418    27.6945   253.6485 </r>
       <r>     5.3952    36.5076   255.5971 </r>
       <r>     5.4486     7.3430   255.9890 </r>
       <r>     5.5019     0.2048   256.0000 </r>
       <r>     5.5553     0.0007   256.0000 </r>
       <r>     5.6087     0.0000   256.0000 </r>
       <r>     5.6621     0.0000   256.0000 </r>
       <r>     5.7154     0.0000   256.0000 </r>
       <r>     5.7688     0.0000   256.0000 </r>
       <r>     5.8222     0.0000   256.0000 </r>
       <r>     5.8756     0.0000   256.0000 </r>
       <r>     5.9289     0.0000   256.0000 </r>
       <r>     5.9823     0.0000   256.0000 </r>
       <r>     6.0357     0.0000   256.0000 </r>
       <r>     6.0891     0.0000   256.0000 </r>
       <r>     6.1424     0.0000   256.0000 </r>
       <r>     6.1958     0.0000   256.0000 </r>
       <r>     6.2492     0.0000   256.0000 </r>
       <r>     6.3026     0.0000   256.0000 </r>
       <r>     6.3560     0.0000   256.0000 </r>
       <r>     6.4093     0.0008   256.0000 </r>
       <r>     6.4627     0.2547   256.0136 </r>
       <r>     6.5161    10.0018   256.5475 </r>
       <r>     6.5695    53.5997   259.4084 </r>
       <r>     6.6228    43.2868   261.7189 </r>
       <r>     6.6762     5.1844   261.9956 </r>
       <r>     6.7296     0.0823   262.0000 </r>
       <r>     6.7830     0.0002   262.0000 </r>
       <r>     6.8363     0.0001   262.0000 </r>
       <r>     6.8897     0.0713   262.0038 </r>
       <r>     6.9431     4.6986   262.2546 </r>
       <r>     6.9965    41.4884   264.4691 </r>
       <r>     7.0498    54.8042   267.3943 </r>
       <r>     7.1032    11.0433   267.9837 </r>
       <r>     7.1566     0.8519   268.0292 </r>
       <r>     7.2100     8.8642   268.5023 </r>
       <r>     7.2633    20.5292   269.5981 </r>
       <r>     7.3167     7.1753   269.9811 </r>
       <r>     7.3701     0.3912   270.0020 </r>
       <r>     7.4235     3.2667   270.1763 </r>
       <r>     7.4768    35.9013   272.0926 </r>
       <r>     7.5302    58.9356   275.2383 </r>
       <r>     7.5836    31.3112   276.9096 </r>
       <r>     7.6370    60.3354   280.1300 </r>
       <r>     7.6903    33.2021   281.9022 </r>
       <r>     7.7437    25.1780   283.2461 </r>
       <r>     7.7971   104.8886   288.8446 </r>
       <r>     7.8505    84.6780   293.3644 </r>
       <r>     7.9038    11.7098   293.9894 </r>
       <r>     7.9572     4.6898   294.2397 </r>
       <r>     8.0106    61.2212   297.5074 </r>
       <r>     8.0640   131.6716   304.5355 </r>
       <r>     8.1174    57.3840   307.5984 </r>
       <r>     8.1707     7.3179   307.9890 </r>
       <r>     8.2241     2.7703   308.1369 </r>
       <r>     8.2775    32.3885   309.8657 </r>
       <r>     8.3309    59.9554   313.0658 </r>
       <r>     8.3842    16.9363   313.9698 </r>
       <r>     8.4376     7.6335   314.3773 </r>
       <r>     8.4910    72.0168   318.2212 </r>
       <r>     8.5444   129.0168   325.1076 </r>
       <r>     8.5977    49.2973   327.7388 </r>
       <r>     8.6511     4.7846   327.9942 </r>
       <r>     8.7045     0.1077   328.0000 </r>
       <r>     8.7579     0.0004   328.0000 </r>
       <r>     8.8112     0.0000   328.0000 </r>
       <r>     8.8646     0.0000   328.0000 </r>
       <r>     8.9180     0.0000   328.0000 </r>
       <r>     8.9714     0.0000   328.0000 </r>
       <r>     9.0247     0.0000   328.0000 </r>
       <r>     9.0781     0.0000   328.0000 </r>
       <r>     9.1315     0.0000   328.0000 </r>
       <r>     9.1849     0.0000   328.0000 </r>
       <r>     9.2382     0.0000   328.0000 </r>
       <r>     9.2916     0.0000   328.0000 </r>
      </set>
     </set>
    </array>
   </total>
  </dos>
 </calculation>
 <structure name="finalpos" >
  <crystal>
   <varray name="basis" >
    <v>      10.93252578       0.00000000       0.00000000 </v>
    <v>       0.00000000      10.93252578       0.00000000 </v>
    <v>       0.00000000       0.00000000      10.93252578 </v>
   </varray>
   <i name="volume">   1306.65679237 </i>
   <varray name="rec_basis" >
    <v>       0.09147017       0.00000000       0.00000000 </v>
    <v>       0.00000000       0.09147017       0.00000000 </v>
    <v>       0.00000000       0.00000000       0.09147017 </v>
   </varray>
  </crystal>
  <varray name="positions" >
   <v>       0.44024411       0.43750000       0.43750000 </v>
   <v>       0.93750000       0.43750000       0.43750000 </v>
   <v>       0.43750000       0.93750000       0.43750000 </v>
   <v>       0.93750000       0.93750000       0.43750000 </v>
   <v>       0.43750000       0.43750000       0.93750000 </v>
   <v>       0.93750000       0.43750000       0.93750000 </v>
   <v>       0.43750000       0.93750000       0.93750000 </v>
   <v>       0.93750000       0.93750000       0.93750000 </v>
   <v>       0.43750000       0.18750000       0.18750000 </v>
   <v>       0.93750000       0.18750000       0.18750000 </v>
   <v>       0.43750000       0.68750000       0.18750000 </v>
   <v>       0.93750000       0.68750000       0.18750000 </v>
   <v>       0.43750000       0.18750000       0.68750000 </v>
   <v>       0.93750000       0.18750000       0.68750000 </v>
   <v>       0.43750000       0.68750000       0.68750000 </v>
   <v>       0.93750000       0.68750000       0.68750000 </v>
   <v>       0.18750000       0.43750000       0.18750000 </v>
   <v>       0.68750000       0.43750000       0.18750000 </v>
   <v>       0.18750000       0.93750000       0.18750000 </v>
   <v>       0.68750000       0.93750000       0.18750000 </v>
   <v>       0.18750000       0.43750000       0.68750000 </v>
   <v>       0.68750000       0.43750000       0.68750000 </v>
   <v>       0.18750000       0.93750000       0.68750000 </v>
   <v>       0.68750000       0.93750000       0.68750000 </v>
   <v>       0.18750000       0.18750000       0.43750000 </v>
   <v>       0.68750000       0.18750000       0.43750000 </v>
   <v>       0.18750000       0.68750000       0.43750000 </v>
   <v>       0.68750000       0.68750000       0.43750000 </v>
   <v>       0.18750000       0.18750000       0.93750000 </v>
   <v>       0.68750000       0.18750000       0.93750000 </v>
   <v>       0.18750000       0.68750000       0.93750000 </v>
   <v>       0.68750000       0.68750000       0.93750000 </v>
   <v>       0.06250000       0.06250000       0.06250000 </v>
   <v>       0.56250000       0.06250000       0.06250000 </v>
   <v>       0.06250000       0.56250000       0.06250000 </v>
   <v>       0.56250000       0.56250000       0.06250000 </v>
   <v>       0.06250000       0.06250000       0.56250000 </v>
   <v>       0.56250000       0.06250000       0.56250000 </v>
   <v>       0.06250000       0.56250000       0.56250000 </v>
   <v>       0.56250000       0.55975589       0.56250000 </v>
   <v>       0.06250000       0.31250000       0.31250000 </v>
   <v>       0.56250000       0.31250000       0.31250000 </v>
   <v>       0.06250000       0.81250000       0.31250000 </v>
   <v>       0.56250000       0.81250000       0.31250000 </v>
   <v>       0.06250000       0.31250000       0.81250000 </v>
   <v>       0.56250000       0.31250000       0.81250000 </v>
   <v>       0.06250000       0.81250000       0.81250000 </v>
   <v>       0.56250000       0.81250000       0.81250000 </v>
   <v>       0.31250000       0.06250000       0.31250000 </v>
   <v>       0.81250000       0.06250000       0.31250000 </v>
   <v>       0.31250000       0.56250000       0.31250000 </v>
   <v>       0.81250000       0.56250000       0.31250000 </v>
   <v>       0.31250000       0.06250000       0.81250000 </v>
   <v>       0.81250000       0.06250000       0.81250000 </v>
   <v>       0.31250000       0.56250000       0.81250000 </v>
   <v>       0.81250000       0.56250000       0.81250000 </v>
   <v>       0.31250000       0.31250000       0.06250000 </v>
   <v>       0.81250000       0.31250000       0.06250000 </v>
   <v>       0.31250000       0.81250000       0.06250000 </v>
   <v>       0.81250000       0.81250000       0.06250000 </v>
   <v>       0.31250000       0.31250000       0.56250000 </v>
   <v>       0.81250000       0.31250000       0.56250000 </v>
   <v>       0.31250000       0.81250000       0.56250000 </v>
   <v>       0.81250000       0.81250000       0.56250000 </v>
  </varray>
 </structure>
</modeling>
