<?xml version="1.0" encoding="ISO-8859-1"?>
<modeling>
 <generator>
  <i name="program" type="string">vasp </i>
  <i name="version" type="string">5.4.1  </i>
  <i name="subversion" type="string">05Feb16 (build Mar 26 2016 11:58:25) complex                          parallel </i>
  <i name="platform" type="string">IFC91_ompi </i>
  <i name="date" type="string">2017 03 12 </i>
  <i name="time" type="string">12:17:41 </i>
 </generator>
 <incar>
  <i type="string" name="PREC">accurate</i>
  <i type="int" name="IALGO">    38</i>
  <i type="logical" name="ADDGRID"> T  </i>
  <i type="int" name="NELMIN">     5</i>
  <i type="int" name="IBRION">    -1</i>
  <i name="EDIFF">      0.00000001</i>
  <i name="ENCUT">    300.00000000</i>
  <i type="logical" name="LREAL"> F  </i>
  <i type="int" name="ISMEAR">     0</i>
  <i name="SIGMA">      0.05000000</i>
  <i type="logical" name="LWAVE"> F  </i>
  <i type="logical" name="LCHARG"> F  </i>
  <v type="int" name="KPOINT_BSE">    -1     0     0     0</v>
 </incar>
 <kpoints>
  <generation param="Monkhorst-Pack">
   <v type="int" name="divisions">       2        2        2 </v>
   <v name="usershift">      0.00000000       0.00000000       0.00000000 </v>
   <v name="genvec1">      0.50000000       0.00000000       0.00000000 </v>
   <v name="genvec2">      0.00000000       0.50000000       0.00000000 </v>
   <v name="genvec3">      0.00000000       0.00000000       0.50000000 </v>
   <v name="shift">      0.50000000       0.50000000       0.50000000 </v>
  </generation>
  <varray name="kpointlist" >
   <v>       0.25000000       0.25000000       0.25000000 </v>
   <v>      -0.25000000       0.25000000       0.25000000 </v>
   <v>       0.25000000      -0.25000000       0.25000000 </v>
  </varray>
  <varray name="weights" >
   <v>       0.50000000 </v>
   <v>       0.25000000 </v>
   <v>       0.25000000 </v>
  </varray>
 </kpoints>
 <parameters>
  <separator name="general" >
   <i type="string" name="SYSTEM">unknown system</i>
   <i type="logical" name="LCOMPAT"> F  </i>
  </separator>
  <separator name="electronic" >
   <i type="string" name="PREC">accura</i>
   <i name="ENMAX">    300.00000000</i>
   <i name="ENAUG">    322.06900000</i>
   <i name="EDIFF">      0.00000001</i>
   <i type="int" name="IALGO">    38</i>
   <i type="int" name="IWAVPR">    10</i>
   <i type="int" name="NBANDS">   164</i>
   <i name="NELECT">    256.00000000</i>
   <i type="int" name="TURBO">     0</i>
   <i type="int" name="IRESTART">     0</i>
   <i type="int" name="NREBOOT">     0</i>
   <i type="int" name="NMIN">     0</i>
   <i name="EREF">      0.00000000</i>
   <separator name="electronic smearing" >
    <i type="int" name="ISMEAR">     0</i>
    <i name="SIGMA">      0.05000000</i>
    <i name="KSPACING">      0.50000000</i>
    <i type="logical" name="KGAMMA"> T  </i>
   </separator>
   <separator name="electronic projectors" >
    <i type="logical" name="LREAL"> F  </i>
    <v name="ROPT">      0.00000000</v>
    <i type="int" name="LMAXPAW">  -100</i>
    <i type="int" name="LMAXMIX">     2</i>
    <i type="logical" name="NLSPLINE"> F  </i>
   </separator>
   <separator name="electronic startup" >
    <i type="int" name="ISTART">     0</i>
    <i type="int" name="ICHARG">     2</i>
    <i type="int" name="INIWAV">     1</i>
   </separator>
   <separator name="electronic spin" >
    <i type="int" name="ISPIN">     1</i>
    <i type="logical" name="LNONCOLLINEAR"> F  </i>
    <v name="MAGMOM">      1.00000000      1.00000000      1.00000000      1.00000000      1.00000000      1.00000000      1.00000000      1.00000000      1.00000000      1.00000000      1.00000000      1.00000000      1.00000000      1.00000000      1.00000000      1.00000000      1.00000000      1.00000000      1.00000000      1.00000000
      1.00000000      1.00000000      1.00000000      1.00000000      1.00000000      1.00000000      1.00000000      1.00000000      1.00000000      1.00000000      1.00000000      1.00000000      1.00000000      1.00000000      1.00000000      1.00000000      1.00000000      1.00000000      1.00000000      1.00000000
      1.00000000      1.00000000      1.00000000      1.00000000      1.00000000      1.00000000      1.00000000      1.00000000      1.00000000      1.00000000      1.00000000      1.00000000      1.00000000      1.00000000      1.00000000      1.00000000      1.00000000      1.00000000      1.00000000      1.00000000
      1.00000000      1.00000000      1.00000000      1.00000000</v>
    <i name="NUPDOWN">     -1.00000000</i>
    <i type="logical" name="LSORBIT"> F  </i>
    <v name="SAXIS">      0.00000000      0.00000000      1.00000000</v>
    <i type="logical" name="LSPIRAL"> F  </i>
    <v name="QSPIRAL">      0.00000000      0.00000000      0.00000000</v>
    <i type="logical" name="LZEROZ"> F  </i>
   </separator>
   <separator name="electronic exchange-correlation" >
    <i type="logical" name="LASPH"> F  </i>
    <i type="logical" name="LMETAGGA"> F  </i>
   </separator>
   <separator name="electronic convergence" >
    <i type="int" name="NELM">    60</i>
    <i type="int" name="NELMDL">    -5</i>
    <i type="int" name="NELMIN">     5</i>
    <i name="ENINI">    300.00000000</i>
    <separator name="electronic convergence detail" >
     <i type="logical" name="LDIAG"> T  </i>
     <i type="logical" name="LSUBROT"> F  </i>
     <i name="WEIMIN">      0.00000000</i>
     <i name="EBREAK">      0.00000000</i>
     <i name="DEPER">      0.30000000</i>
     <i type="int" name="NRMM">     4</i>
     <i name="TIME">      0.40000000</i>
    </separator>
   </separator>
   <separator name="electronic mixer" >
    <i name="AMIX">      0.40000000</i>
    <i name="BMIX">      1.00000000</i>
    <i name="AMIN">      0.10000000</i>
    <i name="AMIX_MAG">      1.60000000</i>
    <i name="BMIX_MAG">      1.00000000</i>
    <separator name="electronic mixer details" >
     <i type="int" name="IMIX">     4</i>
     <i type="logical" name="MIXFIRST"> F  </i>
     <i type="int" name="MAXMIX">   -45</i>
     <i name="WC">    100.00000000</i>
     <i type="int" name="INIMIX">     1</i>
     <i type="int" name="MIXPRE">     1</i>
     <i type="int" name="MREMOVE">     5</i>
    </separator>
   </separator>
   <separator name="electronic dipolcorrection" >
    <i type="logical" name="LDIPOL"> F  </i>
    <i type="logical" name="LMONO"> F  </i>
    <i type="int" name="IDIPOL">     0</i>
    <i name="EPSILON">      1.00000000</i>
    <v name="DIPOL">   -100.00000000   -100.00000000   -100.00000000</v>
    <i name="EFIELD">      0.00000000</i>
   </separator>
  </separator>
  <separator name="grids" >
   <i type="int" name="NGX">    64</i>
   <i type="int" name="NGY">    64</i>
   <i type="int" name="NGZ">    64</i>
   <i type="int" name="NGXF">   128</i>
   <i type="int" name="NGYF">   128</i>
   <i type="int" name="NGZF">   128</i>
   <i type="logical" name="ADDGRID"> T  </i>
  </separator>
  <separator name="ionic" >
   <i type="int" name="NSW">     0</i>
   <i type="int" name="IBRION">    -1</i>
   <i type="int" name="ISIF">     2</i>
   <i name="PSTRESS">      0.00000000</i>
   <i name="EDIFFG">      0.00000010</i>
   <i type="int" name="NFREE">     0</i>
   <i name="POTIM">      0.50000000</i>
   <i name="SMASS">     -3.00000000</i>
   <i name="SCALEE">      1.00000000</i>
  </separator>
  <separator name="ionic md" >
   <i name="TEBEG">      0.00010000</i>
   <i name="TEEND">      0.00010000</i>
   <i type="int" name="NBLOCK">     1</i>
   <i type="int" name="KBLOCK">     1</i>
   <i type="int" name="NPACO">   256</i>
   <i name="APACO">     16.00000000</i>
  </separator>
  <separator name="symmetry" >
   <i type="int" name="ISYM">     2</i>
   <i name="SYMPREC">      0.00001000</i>
  </separator>
  <separator name="dos" >
   <i type="logical" name="LORBIT"> F  </i>
   <v name="RWIGS">     -1.00000000</v>
   <i type="int" name="NEDOS">   301</i>
   <i name="EMIN">     10.00000000</i>
   <i name="EMAX">    -10.00000000</i>
   <i name="EFERMI">      0.00000000</i>
  </separator>
  <separator name="writing" >
   <i type="int" name="NWRITE">     2</i>
   <i type="logical" name="LWAVE"> F  </i>
   <i type="logical" name="LCHARG"> F  </i>
   <i type="logical" name="LPARD"> F  </i>
   <i type="logical" name="LVTOT"> F  </i>
   <i type="logical" name="LVHAR"> F  </i>
   <i type="logical" name="LELF"> F  </i>
   <i type="logical" name="LOPTICS"> F  </i>
   <v name="STM">      0.00000000      0.00000000      0.00000000      0.00000000      0.00000000      0.00000000      0.00000000</v>
  </separator>
  <separator name="performance" >
   <i type="int" name="NPAR">     4</i>
   <i type="int" name="NSIM">     4</i>
   <i type="int" name="NBLK">    -1</i>
   <i type="logical" name="LPLANE"> T  </i>
   <i type="logical" name="LSCALAPACK"> T  </i>
   <i type="logical" name="LSCAAWARE"> F  </i>
   <i type="logical" name="LSCALU"> F  </i>
   <i type="logical" name="LASYNC"> F  </i>
   <i type="logical" name="LORBITALREAL"> F  </i>
  </separator>
  <separator name="miscellaneous" >
   <i type="int" name="IDIOT">     3</i>
   <i type="logical" name="LMUSIC"> F  </i>
   <v name="POMASS">     28.08500000</v>
   <v name="DARWINR">      0.00000000</v>
   <v name="DARWINV">      1.00000000</v>
   <i type="logical" name="LCORR"> T  </i>
  </separator>
  <i type="logical" name="GGA_COMPAT"> T  </i>
  <i type="logical" name="LBERRY"> F  </i>
  <i type="int" name="ICORELEVEL">     0</i>
  <i type="logical" name="LDAU"> F  </i>
  <i type="int" name="I_CONSTRAINED_M">     0</i>
  <separator name="electronic exchange-correlation" >
   <i type="string" name="GGA">--</i>
   <i type="int" name="VOSKOWN">     0</i>
   <i type="logical" name="LHFCALC"> F  </i>
   <i type="string" name="PRECFOCK"></i>
   <i type="logical" name="LSYMGRAD"> F  </i>
   <i type="logical" name="LHFONE"> F  </i>
   <i type="logical" name="LRHFCALC"> F  </i>
   <i type="logical" name="LTHOMAS"> F  </i>
   <i type="logical" name="LMODELHF"> F  </i>
   <i name="ENCUT4O">     -1.00000000</i>
   <i type="int" name="EXXOEP">     0</i>
   <i type="int" name="FOURORBIT">     0</i>
   <i name="AEXX">      0.00000000</i>
   <i name="HFALPHA">      0.00000000</i>
   <i name="MCALPHA">      0.00000000</i>
   <i name="ALDAX">      1.00000000</i>
   <i name="AGGAX">      1.00000000</i>
   <i name="ALDAC">      1.00000000</i>
   <i name="AGGAC">      1.00000000</i>
   <i type="int" name="NKREDX">     1</i>
   <i type="int" name="NKREDY">     1</i>
   <i type="int" name="NKREDZ">     1</i>
   <i type="logical" name="SHIFTRED"> F  </i>
   <i type="logical" name="ODDONLY"> F  </i>
   <i type="logical" name="EVENONLY"> F  </i>
   <i type="int" name="LMAXFOCK">     0</i>
   <i type="int" name="NMAXFOCKAE">     0</i>
   <i type="logical" name="LFOCKAEDFT"> F  </i>
   <i name="HFSCREEN">      0.00000000</i>
   <i name="HFSCREENC">      0.00000000</i>
   <i type="int" name="NBANDSGWLOW">     0</i>
  </separator>
  <separator name="vdW DFT" >
   <i type="logical" name="LUSE_VDW"> F  </i>
   <i name="Zab_VDW">     -0.84910000</i>
   <i name="PARAM1">      0.12340000</i>
   <i name="PARAM2">      1.00000000</i>
   <i name="PARAM3">      0.00000000</i>
  </separator>
  <separator name="model GW" >
   <i type="int" name="MODEL_GW">     0</i>
   <i name="MODEL_EPS0">     12.24990743</i>
   <i name="MODEL_ALPHA">      1.00000000</i>
  </separator>
  <separator name="linear response parameters" >
   <i type="logical" name="LEPSILON"> F  </i>
   <i type="logical" name="LRPA"> F  </i>
   <i type="logical" name="LNABLA"> F  </i>
   <i type="logical" name="LVEL"> F  </i>
   <i type="int" name="KINTER">     0</i>
   <i name="CSHIFT">      0.10000000</i>
   <i name="OMEGAMAX">     -1.00000000</i>
   <i name="DEG_THRESHOLD">      0.00200000</i>
  </separator>
  <separator name="orbital magnetization" >
   <i type="logical" name="NUCIND"> F  </i>
   <v name="MAGPOS">      0.00000000      0.00000000      0.00000000</v>
   <i type="logical" name="LNICSALL"> T  </i>
   <i type="logical" name="ORBITALMAG"> F  </i>
   <i type="logical" name="LMAGBLOCH"> F  </i>
   <i type="logical" name="LCHIMAG"> F  </i>
   <i type="logical" name="LGAUGE"> T  </i>
   <i type="int" name="MAGATOM">     0</i>
   <v name="MAGDIPOL">      0.00000000      0.00000000      0.00000000</v>
   <v name="AVECCONST">      0.00000000      0.00000000      0.00000000</v>
  </separator>
  <separator name="response functions" >
   <i type="logical" name="LADDER"> F  </i>
   <i type="logical" name="LFXC"> F  </i>
   <i type="logical" name="LHARTREE"> T  </i>
   <i type="int" name="IBSE">     0</i>
   <v type="int" name="KPOINT">    -1     0     0     0</v>
   <i type="logical" name="LTCTE"> F  </i>
   <i type="logical" name="LTETE"> F  </i>
   <i type="logical" name="LTRIPLET"> F  </i>
   <i type="logical" name="LFXCEPS"> F  </i>
   <i type="logical" name="LFXHEG"> F  </i>
   <i type="int" name="NATURALO">     0</i>
   <i type="logical" name="L2ORDER"> F  </i>
   <i type="logical" name="LUSEW"> F  </i>
   <i name="ENCUTGW">     -2.00000000</i>
   <i name="ENCUTGWSOFT">     -2.00000000</i>
   <i name="ENCUTLF">     -1.00000000</i>
   <i type="int" name="LMAXMP2">    -1</i>
   <i name="SCISSOR">      0.00000000</i>
   <i type="int" name="NOMEGA">     0</i>
   <i type="int" name="NOMEGAR">     0</i>
   <i type="int" name="NBANDSGW">    -1</i>
   <i type="int" name="NBANDSO">    -1</i>
   <i type="int" name="NBANDSV">    -1</i>
   <i type="int" name="NELM">     1</i>
   <i type="int" name="NELMHF">     1</i>
   <i type="int" name="DIM">     3</i>
   <i type="int" name="ANTIRES">     0</i>
   <i name="OMEGAMAX">    -30.00000000</i>
   <i name="OMEGAMIN">    -30.00000000</i>
   <i name="OMEGATL">   -200.00000000</i>
   <i type="int" name="OMEGAGRID">     0</i>
   <i name="CSHIFT">     -0.10000000</i>
   <i type="logical" name="SELFENERGY"> F  </i>
   <i type="logical" name="LSPECTRAL"> F  </i>
   <i type="logical" name="LSPECTRALGW"> F  </i>
   <i type="logical" name="LSINGLES"> F  </i>
   <i type="logical" name="LFERMIGW"> F  </i>
   <i type="logical" name="ODDONLYGW"> F  </i>
   <i type="logical" name="EVENONLYGW"> F  </i>
   <i type="int" name="NKREDLFX">     1</i>
   <i type="int" name="NKREDLFY">     1</i>
   <i type="int" name="NKREDLFZ">     1</i>
   <i type="int" name="MAXMEM">  1800</i>
   <i type="int" name="TELESCOPE">     0</i>
   <i type="int" name="TAUPAR">     1</i>
   <i type="int" name="OMEGAPAR">    -1</i>
   <i name="LAMBDA">      1.00000000</i>
  </separator>
  <separator name="External order field" >
   <i name="OFIELD_KAPPA">      0.00000000</i>
   <v name="OFIELD_K">      0.00000000      0.00000000      0.00000000</v>
   <i name="OFIELD_Q6_NEAR">      0.00000000</i>
   <i name="OFIELD_Q6_FAR">      0.00000000</i>
   <i name="OFIELD_A">      0.00000000</i>
  </separator>
 </parameters>
 <atominfo>
  <atoms>      64 </atoms>
  <types>       1 </types>
  <array name="atoms" >
   <dimension dim="1">ion</dimension>
   <field type="string">element</field>
   <field type="int">atomtype</field>
   <set>
    <rc><c>Si</c><c>   1</c></rc>
    <rc><c>Si</c><c>   1</c></rc>
    <rc><c>Si</c><c>   1</c></rc>
    <rc><c>Si</c><c>   1</c></rc>
    <rc><c>Si</c><c>   1</c></rc>
    <rc><c>Si</c><c>   1</c></rc>
    <rc><c>Si</c><c>   1</c></rc>
    <rc><c>Si</c><c>   1</c></rc>
    <rc><c>Si</c><c>   1</c></rc>
    <rc><c>Si</c><c>   1</c></rc>
    <rc><c>Si</c><c>   1</c></rc>
    <rc><c>Si</c><c>   1</c></rc>
    <rc><c>Si</c><c>   1</c></rc>
    <rc><c>Si</c><c>   1</c></rc>
    <rc><c>Si</c><c>   1</c></rc>
    <rc><c>Si</c><c>   1</c></rc>
    <rc><c>Si</c><c>   1</c></rc>
    <rc><c>Si</c><c>   1</c></rc>
    <rc><c>Si</c><c>   1</c></rc>
    <rc><c>Si</c><c>   1</c></rc>
    <rc><c>Si</c><c>   1</c></rc>
    <rc><c>Si</c><c>   1</c></rc>
    <rc><c>Si</c><c>   1</c></rc>
    <rc><c>Si</c><c>   1</c></rc>
    <rc><c>Si</c><c>   1</c></rc>
    <rc><c>Si</c><c>   1</c></rc>
    <rc><c>Si</c><c>   1</c></rc>
    <rc><c>Si</c><c>   1</c></rc>
    <rc><c>Si</c><c>   1</c></rc>
    <rc><c>Si</c><c>   1</c></rc>
    <rc><c>Si</c><c>   1</c></rc>
    <rc><c>Si</c><c>   1</c></rc>
    <rc><c>Si</c><c>   1</c></rc>
    <rc><c>Si</c><c>   1</c></rc>
    <rc><c>Si</c><c>   1</c></rc>
    <rc><c>Si</c><c>   1</c></rc>
    <rc><c>Si</c><c>   1</c></rc>
    <rc><c>Si</c><c>   1</c></rc>
    <rc><c>Si</c><c>   1</c></rc>
    <rc><c>Si</c><c>   1</c></rc>
    <rc><c>Si</c><c>   1</c></rc>
    <rc><c>Si</c><c>   1</c></rc>
    <rc><c>Si</c><c>   1</c></rc>
    <rc><c>Si</c><c>   1</c></rc>
    <rc><c>Si</c><c>   1</c></rc>
    <rc><c>Si</c><c>   1</c></rc>
    <rc><c>Si</c><c>   1</c></rc>
    <rc><c>Si</c><c>   1</c></rc>
    <rc><c>Si</c><c>   1</c></rc>
    <rc><c>Si</c><c>   1</c></rc>
    <rc><c>Si</c><c>   1</c></rc>
    <rc><c>Si</c><c>   1</c></rc>
    <rc><c>Si</c><c>   1</c></rc>
    <rc><c>Si</c><c>   1</c></rc>
    <rc><c>Si</c><c>   1</c></rc>
    <rc><c>Si</c><c>   1</c></rc>
    <rc><c>Si</c><c>   1</c></rc>
    <rc><c>Si</c><c>   1</c></rc>
    <rc><c>Si</c><c>   1</c></rc>
    <rc><c>Si</c><c>   1</c></rc>
    <rc><c>Si</c><c>   1</c></rc>
    <rc><c>Si</c><c>   1</c></rc>
    <rc><c>Si</c><c>   1</c></rc>
    <rc><c>Si</c><c>   1</c></rc>
   </set>
  </array>
  <array name="atomtypes" >
   <dimension dim="1">type</dimension>
   <field type="int">atomspertype</field>
   <field type="string">element</field>
   <field>mass</field>
   <field>valence</field>
   <field type="string">pseudopotential</field>
   <set>
    <rc><c>  64</c><c>Si</c><c>     28.08500000</c><c>      4.00000000</c><c>  PAW_PBE Si 05Jan2001                  </c></rc>
   </set>
  </array>
 </atominfo>
 <structure name="initialpos" >
  <crystal>
   <varray name="basis" >
    <v>      10.93252578       0.00000000       0.00000000 </v>
    <v>       0.00000000      10.93252578       0.00000000 </v>
    <v>       0.00000000       0.00000000      10.93252578 </v>
   </varray>
   <i name="volume">   1306.65679237 </i>
   <varray name="rec_basis" >
    <v>       0.09147017       0.00000000       0.00000000 </v>
    <v>       0.00000000       0.09147017       0.00000000 </v>
    <v>       0.00000000       0.00000000       0.09147017 </v>
   </varray>
  </crystal>
  <varray name="positions" >
   <v>       0.44024411       0.43750000       0.43750000 </v>
   <v>       0.93750000       0.43750000       0.43750000 </v>
   <v>       0.43750000       0.93750000       0.43750000 </v>
   <v>       0.93750000       0.93750000       0.43750000 </v>
   <v>       0.43750000       0.43750000       0.93750000 </v>
   <v>       0.93750000       0.43750000       0.93750000 </v>
   <v>       0.43750000       0.93750000       0.93750000 </v>
   <v>       0.93750000       0.93750000       0.93750000 </v>
   <v>       0.43750000       0.18750000       0.18750000 </v>
   <v>       0.93750000       0.18750000       0.18750000 </v>
   <v>       0.43750000       0.68750000       0.18750000 </v>
   <v>       0.93750000       0.68750000       0.18750000 </v>
   <v>       0.43750000       0.18750000       0.68750000 </v>
   <v>       0.93750000       0.18750000       0.68750000 </v>
   <v>       0.43750000       0.68750000       0.68750000 </v>
   <v>       0.93750000       0.68750000       0.68750000 </v>
   <v>       0.18750000       0.43750000       0.18750000 </v>
   <v>       0.68750000       0.43750000       0.18750000 </v>
   <v>       0.18750000       0.93750000       0.18750000 </v>
   <v>       0.68750000       0.93750000       0.18750000 </v>
   <v>       0.18750000       0.43750000       0.68750000 </v>
   <v>       0.68750000       0.43750000       0.68750000 </v>
   <v>       0.18750000       0.93750000       0.68750000 </v>
   <v>       0.68750000       0.93750000       0.68750000 </v>
   <v>       0.18750000       0.18750000       0.43750000 </v>
   <v>       0.68750000       0.18750000       0.43750000 </v>
   <v>       0.18750000       0.68750000       0.43750000 </v>
   <v>       0.68750000       0.68750000       0.43750000 </v>
   <v>       0.18750000       0.18750000       0.93750000 </v>
   <v>       0.68750000       0.18750000       0.93750000 </v>
   <v>       0.18750000       0.68750000       0.93750000 </v>
   <v>       0.68750000       0.68750000       0.93750000 </v>
   <v>       0.06250000       0.06250000       0.06250000 </v>
   <v>       0.56250000       0.06250000       0.06250000 </v>
   <v>       0.06250000       0.56250000       0.06250000 </v>
   <v>       0.56250000       0.56250000       0.06250000 </v>
   <v>       0.06250000       0.06250000       0.56250000 </v>
   <v>       0.56250000       0.06250000       0.56250000 </v>
   <v>       0.06250000       0.56250000       0.56250000 </v>
   <v>       0.56250000       0.56250000       0.56250000 </v>
   <v>       0.06250000       0.31250000       0.31250000 </v>
   <v>       0.56250000       0.31250000       0.31250000 </v>
   <v>       0.06250000       0.81250000       0.31250000 </v>
   <v>       0.56250000       0.81250000       0.31250000 </v>
   <v>       0.06250000       0.31250000       0.81250000 </v>
   <v>       0.56250000       0.31250000       0.81250000 </v>
   <v>       0.06250000       0.81250000       0.81250000 </v>
   <v>       0.56250000       0.81250000       0.81250000 </v>
   <v>       0.31250000       0.06250000       0.31250000 </v>
   <v>       0.81250000       0.06250000       0.31250000 </v>
   <v>       0.31250000       0.56524411       0.31250000 </v>
   <v>       0.81250000       0.56250000       0.31250000 </v>
   <v>       0.31250000       0.06250000       0.81250000 </v>
   <v>       0.81250000       0.06250000       0.81250000 </v>
   <v>       0.31250000       0.56250000       0.81250000 </v>
   <v>       0.81250000       0.56250000       0.81250000 </v>
   <v>       0.31250000       0.31250000       0.06250000 </v>
   <v>       0.81250000       0.31250000       0.06250000 </v>
   <v>       0.31250000       0.81250000       0.06250000 </v>
   <v>       0.81250000       0.81250000       0.06250000 </v>
   <v>       0.31250000       0.31250000       0.56250000 </v>
   <v>       0.81250000       0.31250000       0.56250000 </v>
   <v>       0.31250000       0.81250000       0.56250000 </v>
   <v>       0.81250000       0.81250000       0.56250000 </v>
  </varray>
 </structure>
 <calculation>
  <scstep>
   <time name="dav">    4.15    4.15</time>
   <time name="total">    4.41    4.42</time>
   <energy>
    <i name="alphaZ">    105.52440745 </i>
    <i name="ewald">  -7265.45591878 </i>
    <i name="hartreedc">   -361.72005263 </i>
    <i name="XCdc">   -597.75684288 </i>
    <i name="pawpsdc">   5639.92317535 </i>
    <i name="pawaedc">  -4513.95313856 </i>
    <i name="eentropy">     -0.00021343 </i>
    <i name="bandstr">    855.99638113 </i>
    <i name="atom">   6596.14994790 </i>
    <i name="e_fr_energy">    458.70774556 </i>
    <i name="e_wo_entrp">    458.70795899 </i>
    <i name="e_0_energy">    458.70785228 </i>
   </energy>
  </scstep>
  <scstep>
   <time name="dav">    4.73    4.74</time>
   <time name="total">    4.73    4.74</time>
   <energy>
    <i name="e_fr_energy">   -299.42254504 </i>
    <i name="e_wo_entrp">   -299.42254504 </i>
    <i name="e_0_energy">   -299.42254504 </i>
   </energy>
  </scstep>
  <scstep>
   <time name="dav">    4.82    4.83</time>
   <time name="total">    4.82    4.83</time>
   <energy>
    <i name="e_fr_energy">   -350.99110790 </i>
    <i name="e_wo_entrp">   -350.99110790 </i>
    <i name="e_0_energy">   -350.99110790 </i>
   </energy>
  </scstep>
  <scstep>
   <time name="dav">    4.80    4.80</time>
   <time name="total">    4.80    4.81</time>
   <energy>
    <i name="e_fr_energy">   -352.26696882 </i>
    <i name="e_wo_entrp">   -352.26696882 </i>
    <i name="e_0_energy">   -352.26696882 </i>
   </energy>
  </scstep>
  <scstep>
   <time name="dav">    4.74    4.75</time>
   <time name="total">    5.03    5.04</time>
   <energy>
    <i name="e_fr_energy">   -352.31146323 </i>
    <i name="e_wo_entrp">   -352.31146323 </i>
    <i name="e_0_energy">   -352.31146323 </i>
   </energy>
  </scstep>
  <scstep>
   <time name="dav">    4.65    4.65</time>
   <time name="total">    5.20    5.21</time>
   <energy>
    <i name="e_fr_energy">   -348.58290437 </i>
    <i name="e_wo_entrp">   -348.58290437 </i>
    <i name="e_0_energy">   -348.58290437 </i>
   </energy>
  </scstep>
  <scstep>
   <time name="dav">    4.63    4.64</time>
   <time name="total">    5.18    5.19</time>
   <energy>
    <i name="e_fr_energy">   -346.87012992 </i>
    <i name="e_wo_entrp">   -346.87012992 </i>
    <i name="e_0_energy">   -346.87012992 </i>
   </energy>
  </scstep>
  <scstep>
   <time name="dav">    4.68    4.68</time>
   <time name="total">    5.22    5.23</time>
   <energy>
    <i name="e_fr_energy">   -346.89640980 </i>
    <i name="e_wo_entrp">   -346.89640980 </i>
    <i name="e_0_energy">   -346.89640980 </i>
   </energy>
  </scstep>
  <scstep>
   <time name="dav">    4.85    4.85</time>
   <time name="total">    5.40    5.43</time>
   <energy>
    <i name="e_fr_energy">   -346.90311046 </i>
    <i name="e_wo_entrp">   -346.90311046 </i>
    <i name="e_0_energy">   -346.90311046 </i>
   </energy>
  </scstep>
  <scstep>
   <time name="dav">    4.50    4.51</time>
   <time name="total">    5.04    5.13</time>
   <energy>
    <i name="e_fr_energy">   -346.90517033 </i>
    <i name="e_wo_entrp">   -346.90517033 </i>
    <i name="e_0_energy">   -346.90517033 </i>
   </energy>
  </scstep>
  <scstep>
   <time name="dav">    4.76    4.78</time>
   <time name="total">    5.32    5.35</time>
   <energy>
    <i name="e_fr_energy">   -346.90514338 </i>
    <i name="e_wo_entrp">   -346.90514338 </i>
    <i name="e_0_energy">   -346.90514338 </i>
   </energy>
  </scstep>
  <scstep>
   <time name="dav">    4.62    4.63</time>
   <time name="total">    5.17    5.19</time>
   <energy>
    <i name="e_fr_energy">   -346.90515901 </i>
    <i name="e_wo_entrp">   -346.90515901 </i>
    <i name="e_0_energy">   -346.90515901 </i>
   </energy>
  </scstep>
  <scstep>
   <time name="dav">    4.67    4.67</time>
   <time name="total">    5.23    5.24</time>
   <energy>
    <i name="e_fr_energy">   -346.90515934 </i>
    <i name="e_wo_entrp">   -346.90515934 </i>
    <i name="e_0_energy">   -346.90515934 </i>
   </energy>
  </scstep>
  <scstep>
   <time name="dav">    4.83    4.84</time>
   <time name="total">    5.39    5.40</time>
   <energy>
    <i name="e_fr_energy">   -346.90515990 </i>
    <i name="e_wo_entrp">   -346.90515990 </i>
    <i name="e_0_energy">   -346.90515990 </i>
   </energy>
  </scstep>
  <scstep>
   <time name="dav">    4.07    4.07</time>
   <time name="total">    4.62    4.63</time>
   <energy>
    <i name="e_fr_energy">   -346.90515964 </i>
    <i name="e_wo_entrp">   -346.90515964 </i>
    <i name="e_0_energy">   -346.90515964 </i>
   </energy>
  </scstep>
  <scstep>
   <time name="dav">    3.24    3.25</time>
   <time name="total">    3.79    3.81</time>
   <energy>
    <i name="e_fr_energy">   -346.90515973 </i>
    <i name="e_wo_entrp">   -346.90515973 </i>
    <i name="e_0_energy">   -346.90515973 </i>
   </energy>
  </scstep>
  <scstep>
   <time name="dav">    3.20    3.20</time>
   <time name="total">    3.46    3.47</time>
   <energy>
    <i name="alphaZ">    105.52440745 </i>
    <i name="ewald">  -7265.45591878 </i>
    <i name="hartreedc">   -485.15263138 </i>
    <i name="XCdc">   -577.61184260 </i>
    <i name="pawpsdc">  27883.80926067 </i>
    <i name="pawaedc"> -26764.52741102 </i>
    <i name="eentropy">      0.00000000 </i>
    <i name="bandstr">    160.35902805 </i>
    <i name="atom">   6596.14994790 </i>
    <i name="e_fr_energy">   -346.90515972 </i>
    <i name="e_wo_entrp">   -346.90515972 </i>
    <i name="e_0_energy">   -346.90515972 </i>
   </energy>
  </scstep>
  <structure>
   <crystal>
    <varray name="basis" >
     <v>      10.93252578       0.00000000       0.00000000 </v>
     <v>       0.00000000      10.93252578       0.00000000 </v>
     <v>       0.00000000       0.00000000      10.93252578 </v>
    </varray>
    <i name="volume">   1306.65679237 </i>
    <varray name="rec_basis" >
     <v>       0.09147017       0.00000000       0.00000000 </v>
     <v>       0.00000000       0.09147017       0.00000000 </v>
     <v>       0.00000000       0.00000000       0.09147017 </v>
    </varray>
   </crystal>
   <varray name="positions" >
    <v>       0.44024411       0.43750000       0.43750000 </v>
    <v>       0.93750000       0.43750000       0.43750000 </v>
    <v>       0.43750000       0.93750000       0.43750000 </v>
    <v>       0.93750000       0.93750000       0.43750000 </v>
    <v>       0.43750000       0.43750000       0.93750000 </v>
    <v>       0.93750000       0.43750000       0.93750000 </v>
    <v>       0.43750000       0.93750000       0.93750000 </v>
    <v>       0.93750000       0.93750000       0.93750000 </v>
    <v>       0.43750000       0.18750000       0.18750000 </v>
    <v>       0.93750000       0.18750000       0.18750000 </v>
    <v>       0.43750000       0.68750000       0.18750000 </v>
    <v>       0.93750000       0.68750000       0.18750000 </v>
    <v>       0.43750000       0.18750000       0.68750000 </v>
    <v>       0.93750000       0.18750000       0.68750000 </v>
    <v>       0.43750000       0.68750000       0.68750000 </v>
    <v>       0.93750000       0.68750000       0.68750000 </v>
    <v>       0.18750000       0.43750000       0.18750000 </v>
    <v>       0.68750000       0.43750000       0.18750000 </v>
    <v>       0.18750000       0.93750000       0.18750000 </v>
    <v>       0.68750000       0.93750000       0.18750000 </v>
    <v>       0.18750000       0.43750000       0.68750000 </v>
    <v>       0.68750000       0.43750000       0.68750000 </v>
    <v>       0.18750000       0.93750000       0.68750000 </v>
    <v>       0.68750000       0.93750000       0.68750000 </v>
    <v>       0.18750000       0.18750000       0.43750000 </v>
    <v>       0.68750000       0.18750000       0.43750000 </v>
    <v>       0.18750000       0.68750000       0.43750000 </v>
    <v>       0.68750000       0.68750000       0.43750000 </v>
    <v>       0.18750000       0.18750000       0.93750000 </v>
    <v>       0.68750000       0.18750000       0.93750000 </v>
    <v>       0.18750000       0.68750000       0.93750000 </v>
    <v>       0.68750000       0.68750000       0.93750000 </v>
    <v>       0.06250000       0.06250000       0.06250000 </v>
    <v>       0.56250000       0.06250000       0.06250000 </v>
    <v>       0.06250000       0.56250000       0.06250000 </v>
    <v>       0.56250000       0.56250000       0.06250000 </v>
    <v>       0.06250000       0.06250000       0.56250000 </v>
    <v>       0.56250000       0.06250000       0.56250000 </v>
    <v>       0.06250000       0.56250000       0.56250000 </v>
    <v>       0.56250000       0.56250000       0.56250000 </v>
    <v>       0.06250000       0.31250000       0.31250000 </v>
    <v>       0.56250000       0.31250000       0.31250000 </v>
    <v>       0.06250000       0.81250000       0.31250000 </v>
    <v>       0.56250000       0.81250000       0.31250000 </v>
    <v>       0.06250000       0.31250000       0.81250000 </v>
    <v>       0.56250000       0.31250000       0.81250000 </v>
    <v>       0.06250000       0.81250000       0.81250000 </v>
    <v>       0.56250000       0.81250000       0.81250000 </v>
    <v>       0.31250000       0.06250000       0.31250000 </v>
    <v>       0.81250000       0.06250000       0.31250000 </v>
    <v>       0.31250000       0.56524411       0.31250000 </v>
    <v>       0.81250000       0.56250000       0.31250000 </v>
    <v>       0.31250000       0.06250000       0.81250000 </v>
    <v>       0.81250000       0.06250000       0.81250000 </v>
    <v>       0.31250000       0.56250000       0.81250000 </v>
    <v>       0.81250000       0.56250000       0.81250000 </v>
    <v>       0.31250000       0.31250000       0.06250000 </v>
    <v>       0.81250000       0.31250000       0.06250000 </v>
    <v>       0.31250000       0.81250000       0.06250000 </v>
    <v>       0.81250000       0.81250000       0.06250000 </v>
    <v>       0.31250000       0.31250000       0.56250000 </v>
    <v>       0.81250000       0.31250000       0.56250000 </v>
    <v>       0.31250000       0.81250000       0.56250000 </v>
    <v>       0.81250000       0.81250000       0.56250000 </v>
   </varray>
  </structure>
  <varray name="forces" >
   <v>      -0.44314015       0.08804609      -0.05418138 </v>
   <v>      -0.00033955      -0.00143267      -0.00124867 </v>
   <v>       0.00041106      -0.00027695      -0.00090773 </v>
   <v>      -0.00081667       0.00066068      -0.00068231 </v>
   <v>       0.00007182      -0.00143916      -0.00089897 </v>
   <v>      -0.00083882       0.00613683      -0.00067010 </v>
   <v>      -0.01225930       0.00066788      -0.00065702 </v>
   <v>      -0.00016508      -0.00053370      -0.00074998 </v>
   <v>      -0.01196669       0.00249104       0.00185922 </v>
   <v>       0.00057332       0.00084896      -0.00041969 </v>
   <v>       0.05334259       0.09856864      -0.06865842 </v>
   <v>       0.00092429      -0.00124607      -0.00145054 </v>
   <v>      -0.01213391      -0.00201331       0.00204476 </v>
   <v>       0.00075233      -0.00077004      -0.00052761 </v>
   <v>      -0.01169697      -0.00426793      -0.00370799 </v>
   <v>       0.00065112       0.00599332      -0.00091437 </v>
   <v>       0.06659670       0.09046633       0.06666511 </v>
   <v>       0.00669215      -0.00420299      -0.00442797 </v>
   <v>       0.00192918      -0.00050943      -0.00095634 </v>
   <v>       0.00165268       0.00042465       0.00253589 </v>
   <v>       0.00689954       0.00123311      -0.00467786 </v>
   <v>       0.00646864       0.00887700       0.00640323 </v>
   <v>       0.00172473       0.00089047       0.00250534 </v>
   <v>       0.00176954      -0.00030173      -0.00110577 </v>
   <v>       0.00473528       0.00529210      -0.00174139 </v>
   <v>       0.00517959      -0.00507329      -0.00206643 </v>
   <v>      -0.06045481       0.09026086       0.06888163 </v>
   <v>       0.00486057       0.00418712       0.00396838 </v>
   <v>       0.00036059      -0.00124064       0.00036868 </v>
   <v>       0.00025971       0.00131411       0.00052491 </v>
   <v>      -0.00020777       0.00040399       0.00114809 </v>
   <v>       0.00032458       0.00438442       0.00092705 </v>
   <v>      -0.00077004       0.00075233       0.00052761 </v>
   <v>       0.00599332       0.00065112       0.00091437 </v>
   <v>      -0.00201331      -0.01213391      -0.00204476 </v>
   <v>      -0.00426793      -0.01169697       0.00370799 </v>
   <v>       0.00084896       0.00057332       0.00041969 </v>
   <v>      -0.00124607       0.00092429       0.00145054 </v>
   <v>       0.00249104      -0.01196669      -0.00185922 </v>
   <v>       0.09856864       0.05334259       0.06865842 </v>
   <v>       0.00529210       0.00473528       0.00174139 </v>
   <v>       0.09026086      -0.06045481      -0.06888163 </v>
   <v>      -0.00507329       0.00517959       0.00206643 </v>
   <v>       0.00418712       0.00486057      -0.00396838 </v>
   <v>      -0.00124064       0.00036059      -0.00036868 </v>
   <v>       0.00040399      -0.00020777      -0.00114809 </v>
   <v>       0.00131411       0.00025971      -0.00052491 </v>
   <v>       0.00438442       0.00032458      -0.00092705 </v>
   <v>      -0.00143267      -0.00033955       0.00124867 </v>
   <v>       0.00066068      -0.00081667       0.00068231 </v>
   <v>       0.08804609      -0.44314015       0.05418138 </v>
   <v>      -0.00027695       0.00041106       0.00090773 </v>
   <v>       0.00613683      -0.00083882       0.00067010 </v>
   <v>      -0.00053370      -0.00016508       0.00074998 </v>
   <v>      -0.00143916       0.00007182       0.00089897 </v>
   <v>       0.00066788      -0.01225930       0.00065702 </v>
   <v>       0.00123311       0.00689954       0.00467786 </v>
   <v>       0.00089047       0.00172473      -0.00250534 </v>
   <v>       0.00887700       0.00646864      -0.00640323 </v>
   <v>      -0.00030173       0.00176954       0.00110577 </v>
   <v>       0.09046633       0.06659670      -0.06666511 </v>
   <v>      -0.00050943       0.00192918       0.00095634 </v>
   <v>      -0.00420299       0.00669215       0.00442797 </v>
   <v>       0.00042465       0.00165268      -0.00253589 </v>
  </varray>
  <varray name="stress" >
   <v>       0.00772308      -0.00543511      -0.32588285 </v>
   <v>      -0.00543511       0.00772308       0.32588285 </v>
   <v>      -0.32588283       0.32588283       0.03132218 </v>
  </varray>
  <energy>
   <i name="e_fr_energy">   -346.90515972 </i>
   <i name="e_wo_entrp">   -346.90515972 </i>
   <i name="e_0_energy">      0.00000000 </i>
  </energy>
  <time name="totalsc">   92.55   92.88</time>
  <eigenvalues>
   <array>
    <dimension dim="1">band</dimension>
    <dimension dim="2">kpoint</dimension>
    <dimension dim="3">spin</dimension>
    <field>eigene</field>
    <field>occ</field>
    <set>
     <set comment="spin 1">
      <set comment="kpoint 1">
       <r>   -5.9932    1.0000 </r>
       <r>   -5.4672    1.0000 </r>
       <r>   -5.4654    1.0000 </r>
       <r>   -5.4618    1.0000 </r>
       <r>   -4.9678    1.0000 </r>
       <r>   -4.9662    1.0000 </r>
       <r>   -4.9626    1.0000 </r>
       <r>   -4.5323    1.0000 </r>
       <r>   -4.4350    1.0000 </r>
       <r>   -4.4333    1.0000 </r>
       <r>   -4.4292    1.0000 </r>
       <r>   -4.0248    1.0000 </r>
       <r>   -4.0187    1.0000 </r>
       <r>   -4.0166    1.0000 </r>
       <r>   -4.0164    1.0000 </r>
       <r>   -4.0149    1.0000 </r>
       <r>   -4.0076    1.0000 </r>
       <r>   -3.8286    1.0000 </r>
       <r>   -3.8244    1.0000 </r>
       <r>   -3.8200    1.0000 </r>
       <r>   -3.3310    1.0000 </r>
       <r>   -3.3299    1.0000 </r>
       <r>   -3.3243    1.0000 </r>
       <r>   -2.9641    1.0000 </r>
       <r>   -2.9591    1.0000 </r>
       <r>   -2.9545    1.0000 </r>
       <r>   -2.7989    1.0000 </r>
       <r>   -2.7938    1.0000 </r>
       <r>   -2.7911    1.0000 </r>
       <r>   -2.7906    1.0000 </r>
       <r>   -2.7890    1.0000 </r>
       <r>   -2.7817    1.0000 </r>
       <r>   -1.2584    1.0000 </r>
       <r>   -1.2523    1.0000 </r>
       <r>   -1.2489    1.0000 </r>
       <r>   -1.2486    1.0000 </r>
       <r>   -1.2464    1.0000 </r>
       <r>   -1.2393    1.0000 </r>
       <r>   -1.1560    1.0000 </r>
       <r>   -1.1511    1.0000 </r>
       <r>   -1.1459    1.0000 </r>
       <r>   -1.0380    1.0000 </r>
       <r>   -1.0329    1.0000 </r>
       <r>   -1.0269    1.0000 </r>
       <r>   -0.9511    1.0000 </r>
       <r>   -0.9477    1.0000 </r>
       <r>   -0.9412    1.0000 </r>
       <r>   -0.2446    1.0000 </r>
       <r>   -0.1689    1.0000 </r>
       <r>   -0.1643    1.0000 </r>
       <r>   -0.1609    1.0000 </r>
       <r>   -0.1602    1.0000 </r>
       <r>   -0.1571    1.0000 </r>
       <r>   -0.1492    1.0000 </r>
       <r>    0.7098    1.0000 </r>
       <r>    0.7136    1.0000 </r>
       <r>    0.7193    1.0000 </r>
       <r>    1.0432    1.0000 </r>
       <r>    1.0469    1.0000 </r>
       <r>    1.0512    1.0000 </r>
       <r>    1.6526    1.0000 </r>
       <r>    1.6550    1.0000 </r>
       <r>    1.6558    1.0000 </r>
       <r>    1.6570    1.0000 </r>
       <r>    1.6596    1.0000 </r>
       <r>    1.6613    1.0000 </r>
       <r>    1.7134    1.0000 </r>
       <r>    1.7156    1.0000 </r>
       <r>    1.7194    1.0000 </r>
       <r>    2.2649    1.0000 </r>
       <r>    2.2678    1.0000 </r>
       <r>    2.2704    1.0000 </r>
       <r>    2.3662    1.0000 </r>
       <r>    2.3674    1.0000 </r>
       <r>    2.3693    1.0000 </r>
       <r>    2.3713    1.0000 </r>
       <r>    2.3739    1.0000 </r>
       <r>    2.3765    1.0000 </r>
       <r>    2.4207    1.0000 </r>
       <r>    2.4251    1.0000 </r>
       <r>    2.4296    1.0000 </r>
       <r>    2.7301    1.0000 </r>
       <r>    2.7325    1.0000 </r>
       <r>    2.7342    1.0000 </r>
       <r>    2.7345    1.0000 </r>
       <r>    2.7366    1.0000 </r>
       <r>    2.7416    1.0000 </r>
       <r>    2.9971    1.0000 </r>
       <r>    2.9988    1.0000 </r>
       <r>    3.0012    1.0000 </r>
       <r>    3.0097    1.0000 </r>
       <r>    3.0138    1.0000 </r>
       <r>    3.0175    1.0000 </r>
       <r>    3.3592    1.0000 </r>
       <r>    3.3622    1.0000 </r>
       <r>    3.3642    1.0000 </r>
       <r>    3.3802    1.0000 </r>
       <r>    3.3840    1.0000 </r>
       <r>    3.3891    1.0000 </r>
       <r>    3.4637    1.0000 </r>
       <r>    3.4660    1.0000 </r>
       <r>    3.4702    1.0000 </r>
       <r>    3.7347    1.0000 </r>
       <r>    3.7392    1.0000 </r>
       <r>    3.7402    1.0000 </r>
       <r>    3.7412    1.0000 </r>
       <r>    3.7425    1.0000 </r>
       <r>    3.7493    1.0000 </r>
       <r>    3.7774    1.0000 </r>
       <r>    3.7800    1.0000 </r>
       <r>    3.7852    1.0000 </r>
       <r>    4.0404    1.0000 </r>
       <r>    4.0947    1.0000 </r>
       <r>    4.0978    1.0000 </r>
       <r>    4.1015    1.0000 </r>
       <r>    4.3376    1.0000 </r>
       <r>    4.3404    1.0000 </r>
       <r>    4.3449    1.0000 </r>
       <r>    4.4019    1.0000 </r>
       <r>    4.4052    1.0000 </r>
       <r>    4.4104    1.0000 </r>
       <r>    4.5588    1.0000 </r>
       <r>    4.5671    1.0000 </r>
       <r>    4.8654    1.0000 </r>
       <r>    4.8694    1.0000 </r>
       <r>    4.8755    1.0000 </r>
       <r>    5.3451    1.0000 </r>
       <r>    5.3544    1.0000 </r>
       <r>    6.5603    0.0000 </r>
       <r>    6.5628    0.0000 </r>
       <r>    6.5670    0.0000 </r>
       <r>    6.9991    0.0000 </r>
       <r>    7.0043    0.0000 </r>
       <r>    7.0098    0.0000 </r>
       <r>    7.2337    0.0000 </r>
       <r>    7.4859    0.0000 </r>
       <r>    7.4907    0.0000 </r>
       <r>    7.4954    0.0000 </r>
       <r>    7.6153    0.0000 </r>
       <r>    7.6197    0.0000 </r>
       <r>    7.6237    0.0000 </r>
       <r>    7.7759    0.0000 </r>
       <r>    7.7802    0.0000 </r>
       <r>    7.7830    0.0000 </r>
       <r>    7.7984    0.0000 </r>
       <r>    7.7999    0.0000 </r>
       <r>    7.8055    0.0000 </r>
       <r>    8.0243    0.0000 </r>
       <r>    8.0281    0.0000 </r>
       <r>    8.0300    0.0000 </r>
       <r>    8.0302    0.0000 </r>
       <r>    8.0327    0.0000 </r>
       <r>    8.0374    0.0000 </r>
       <r>    8.0817    0.0000 </r>
       <r>    8.2914    0.0000 </r>
       <r>    8.2949    0.0000 </r>
       <r>    8.2985    0.0000 </r>
       <r>    8.4941    0.0000 </r>
       <r>    8.4996    0.0000 </r>
       <r>    8.5018    0.0000 </r>
       <r>    8.5036    0.0000 </r>
       <r>    8.5106    0.0000 </r>
       <r>    8.5232    0.0000 </r>
       <r>    8.5529    0.0000 </r>
      </set>
      <set comment="kpoint 2">
       <r>   -5.9931    1.0000 </r>
       <r>   -5.4679    1.0000 </r>
       <r>   -5.4652    1.0000 </r>
       <r>   -5.4616    1.0000 </r>
       <r>   -4.9682    1.0000 </r>
       <r>   -4.9660    1.0000 </r>
       <r>   -4.9624    1.0000 </r>
       <r>   -4.5314    1.0000 </r>
       <r>   -4.4354    1.0000 </r>
       <r>   -4.4326    1.0000 </r>
       <r>   -4.4283    1.0000 </r>
       <r>   -4.0244    1.0000 </r>
       <r>   -4.0204    1.0000 </r>
       <r>   -4.0165    1.0000 </r>
       <r>   -4.0159    1.0000 </r>
       <r>   -4.0135    1.0000 </r>
       <r>   -4.0111    1.0000 </r>
       <r>   -3.8293    1.0000 </r>
       <r>   -3.8240    1.0000 </r>
       <r>   -3.8217    1.0000 </r>
       <r>   -3.3303    1.0000 </r>
       <r>   -3.3276    1.0000 </r>
       <r>   -3.3220    1.0000 </r>
       <r>   -2.9652    1.0000 </r>
       <r>   -2.9577    1.0000 </r>
       <r>   -2.9559    1.0000 </r>
       <r>   -2.7990    1.0000 </r>
       <r>   -2.7932    1.0000 </r>
       <r>   -2.7911    1.0000 </r>
       <r>   -2.7906    1.0000 </r>
       <r>   -2.7870    1.0000 </r>
       <r>   -2.7858    1.0000 </r>
       <r>   -1.2583    1.0000 </r>
       <r>   -1.2501    1.0000 </r>
       <r>   -1.2486    1.0000 </r>
       <r>   -1.2482    1.0000 </r>
       <r>   -1.2439    1.0000 </r>
       <r>   -1.2418    1.0000 </r>
       <r>   -1.1556    1.0000 </r>
       <r>   -1.1485    1.0000 </r>
       <r>   -1.1465    1.0000 </r>
       <r>   -1.0346    1.0000 </r>
       <r>   -1.0322    1.0000 </r>
       <r>   -1.0262    1.0000 </r>
       <r>   -0.9581    1.0000 </r>
       <r>   -0.9476    1.0000 </r>
       <r>   -0.9465    1.0000 </r>
       <r>   -0.2481    1.0000 </r>
       <r>   -0.1672    1.0000 </r>
       <r>   -0.1613    1.0000 </r>
       <r>   -0.1605    1.0000 </r>
       <r>   -0.1600    1.0000 </r>
       <r>   -0.1533    1.0000 </r>
       <r>   -0.1499    1.0000 </r>
       <r>    0.7056    1.0000 </r>
       <r>    0.7138    1.0000 </r>
       <r>    0.7165    1.0000 </r>
       <r>    1.0437    1.0000 </r>
       <r>    1.0476    1.0000 </r>
       <r>    1.0501    1.0000 </r>
       <r>    1.6520    1.0000 </r>
       <r>    1.6544    1.0000 </r>
       <r>    1.6570    1.0000 </r>
       <r>    1.6576    1.0000 </r>
       <r>    1.6590    1.0000 </r>
       <r>    1.6625    1.0000 </r>
       <r>    1.7141    1.0000 </r>
       <r>    1.7175    1.0000 </r>
       <r>    1.7196    1.0000 </r>
       <r>    2.2632    1.0000 </r>
       <r>    2.2665    1.0000 </r>
       <r>    2.2679    1.0000 </r>
       <r>    2.3672    1.0000 </r>
       <r>    2.3693    1.0000 </r>
       <r>    2.3705    1.0000 </r>
       <r>    2.3720    1.0000 </r>
       <r>    2.3745    1.0000 </r>
       <r>    2.3789    1.0000 </r>
       <r>    2.4225    1.0000 </r>
       <r>    2.4284    1.0000 </r>
       <r>    2.4305    1.0000 </r>
       <r>    2.7300    1.0000 </r>
       <r>    2.7321    1.0000 </r>
       <r>    2.7343    1.0000 </r>
       <r>    2.7349    1.0000 </r>
       <r>    2.7363    1.0000 </r>
       <r>    2.7410    1.0000 </r>
       <r>    2.9986    1.0000 </r>
       <r>    2.9998    1.0000 </r>
       <r>    3.0024    1.0000 </r>
       <r>    3.0115    1.0000 </r>
       <r>    3.0151    1.0000 </r>
       <r>    3.0177    1.0000 </r>
       <r>    3.3579    1.0000 </r>
       <r>    3.3593    1.0000 </r>
       <r>    3.3628    1.0000 </r>
       <r>    3.3779    1.0000 </r>
       <r>    3.3819    1.0000 </r>
       <r>    3.3844    1.0000 </r>
       <r>    3.4658    1.0000 </r>
       <r>    3.4668    1.0000 </r>
       <r>    3.4706    1.0000 </r>
       <r>    3.7312    1.0000 </r>
       <r>    3.7346    1.0000 </r>
       <r>    3.7402    1.0000 </r>
       <r>    3.7411    1.0000 </r>
       <r>    3.7421    1.0000 </r>
       <r>    3.7427    1.0000 </r>
       <r>    3.7798    1.0000 </r>
       <r>    3.7808    1.0000 </r>
       <r>    3.7852    1.0000 </r>
       <r>    4.0365    1.0000 </r>
       <r>    4.0980    1.0000 </r>
       <r>    4.0989    1.0000 </r>
       <r>    4.1037    1.0000 </r>
       <r>    4.3407    1.0000 </r>
       <r>    4.3415    1.0000 </r>
       <r>    4.3467    1.0000 </r>
       <r>    4.3952    1.0000 </r>
       <r>    4.4037    1.0000 </r>
       <r>    4.4051    1.0000 </r>
       <r>    4.5617    1.0000 </r>
       <r>    4.5664    1.0000 </r>
       <r>    4.8697    1.0000 </r>
       <r>    4.8706    1.0000 </r>
       <r>    4.8777    1.0000 </r>
       <r>    5.3492    1.0000 </r>
       <r>    5.3547    1.0000 </r>
       <r>    6.5618    0.0000 </r>
       <r>    6.5653    0.0000 </r>
       <r>    6.5679    0.0000 </r>
       <r>    7.0011    0.0000 </r>
       <r>    7.0033    0.0000 </r>
       <r>    7.0110    0.0000 </r>
       <r>    7.2351    0.0000 </r>
       <r>    7.4885    0.0000 </r>
       <r>    7.4912    0.0000 </r>
       <r>    7.4970    0.0000 </r>
       <r>    7.6151    0.0000 </r>
       <r>    7.6169    0.0000 </r>
       <r>    7.6224    0.0000 </r>
       <r>    7.7774    0.0000 </r>
       <r>    7.7782    0.0000 </r>
       <r>    7.7843    0.0000 </r>
       <r>    7.7989    0.0000 </r>
       <r>    7.8007    0.0000 </r>
       <r>    7.8070    0.0000 </r>
       <r>    8.0234    0.0000 </r>
       <r>    8.0260    0.0000 </r>
       <r>    8.0273    0.0000 </r>
       <r>    8.0307    0.0000 </r>
       <r>    8.0317    0.0000 </r>
       <r>    8.0336    0.0000 </r>
       <r>    8.0838    0.0000 </r>
       <r>    8.2927    0.0000 </r>
       <r>    8.2938    0.0000 </r>
       <r>    8.2991    0.0000 </r>
       <r>    8.4945    0.0000 </r>
       <r>    8.4968    0.0000 </r>
       <r>    8.5023    0.0000 </r>
       <r>    8.5049    0.0000 </r>
       <r>    8.5124    0.0000 </r>
       <r>    8.5253    0.0000 </r>
       <r>    8.5403    0.0000 </r>
      </set>
      <set comment="kpoint 3">
       <r>   -5.9932    1.0000 </r>
       <r>   -5.4679    1.0000 </r>
       <r>   -5.4656    1.0000 </r>
       <r>   -5.4605    1.0000 </r>
       <r>   -4.9688    1.0000 </r>
       <r>   -4.9664    1.0000 </r>
       <r>   -4.9616    1.0000 </r>
       <r>   -4.5333    1.0000 </r>
       <r>   -4.4363    1.0000 </r>
       <r>   -4.4334    1.0000 </r>
       <r>   -4.4286    1.0000 </r>
       <r>   -4.0223    1.0000 </r>
       <r>   -4.0191    1.0000 </r>
       <r>   -4.0175    1.0000 </r>
       <r>   -4.0172    1.0000 </r>
       <r>   -4.0155    1.0000 </r>
       <r>   -4.0046    1.0000 </r>
       <r>   -3.8270    1.0000 </r>
       <r>   -3.8249    1.0000 </r>
       <r>   -3.8191    1.0000 </r>
       <r>   -3.3350    1.0000 </r>
       <r>   -3.3295    1.0000 </r>
       <r>   -3.3260    1.0000 </r>
       <r>   -2.9624    1.0000 </r>
       <r>   -2.9607    1.0000 </r>
       <r>   -2.9537    1.0000 </r>
       <r>   -2.7957    1.0000 </r>
       <r>   -2.7937    1.0000 </r>
       <r>   -2.7924    1.0000 </r>
       <r>   -2.7919    1.0000 </r>
       <r>   -2.7898    1.0000 </r>
       <r>   -2.7798    1.0000 </r>
       <r>   -1.2553    1.0000 </r>
       <r>   -1.2515    1.0000 </r>
       <r>   -1.2511    1.0000 </r>
       <r>   -1.2495    1.0000 </r>
       <r>   -1.2465    1.0000 </r>
       <r>   -1.2424    1.0000 </r>
       <r>   -1.1560    1.0000 </r>
       <r>   -1.1535    1.0000 </r>
       <r>   -1.1462    1.0000 </r>
       <r>   -1.0385    1.0000 </r>
       <r>   -1.0336    1.0000 </r>
       <r>   -1.0308    1.0000 </r>
       <r>   -0.9483    1.0000 </r>
       <r>   -0.9471    1.0000 </r>
       <r>   -0.9324    1.0000 </r>
       <r>   -0.2410    1.0000 </r>
       <r>   -0.1693    1.0000 </r>
       <r>   -0.1642    1.0000 </r>
       <r>   -0.1627    1.0000 </r>
       <r>   -0.1609    1.0000 </r>
       <r>   -0.1588    1.0000 </r>
       <r>   -0.1532    1.0000 </r>
       <r>    0.7118    1.0000 </r>
       <r>    0.7141    1.0000 </r>
       <r>    0.7237    1.0000 </r>
       <r>    1.0441    1.0000 </r>
       <r>    1.0465    1.0000 </r>
       <r>    1.0505    1.0000 </r>
       <r>    1.6526    1.0000 </r>
       <r>    1.6544    1.0000 </r>
       <r>    1.6568    1.0000 </r>
       <r>    1.6573    1.0000 </r>
       <r>    1.6593    1.0000 </r>
       <r>    1.6605    1.0000 </r>
       <r>    1.7120    1.0000 </r>
       <r>    1.7150    1.0000 </r>
       <r>    1.7180    1.0000 </r>
       <r>    2.2676    1.0000 </r>
       <r>    2.2683    1.0000 </r>
       <r>    2.2728    1.0000 </r>
       <r>    2.3637    1.0000 </r>
       <r>    2.3651    1.0000 </r>
       <r>    2.3697    1.0000 </r>
       <r>    2.3710    1.0000 </r>
       <r>    2.3736    1.0000 </r>
       <r>    2.3743    1.0000 </r>
       <r>    2.4207    1.0000 </r>
       <r>    2.4217    1.0000 </r>
       <r>    2.4263    1.0000 </r>
       <r>    2.7301    1.0000 </r>
       <r>    2.7333    1.0000 </r>
       <r>    2.7344    1.0000 </r>
       <r>    2.7354    1.0000 </r>
       <r>    2.7356    1.0000 </r>
       <r>    2.7418    1.0000 </r>
       <r>    2.9961    1.0000 </r>
       <r>    2.9985    1.0000 </r>
       <r>    2.9991    1.0000 </r>
       <r>    3.0096    1.0000 </r>
       <r>    3.0127    1.0000 </r>
       <r>    3.0153    1.0000 </r>
       <r>    3.3611    1.0000 </r>
       <r>    3.3623    1.0000 </r>
       <r>    3.3669    1.0000 </r>
       <r>    3.3842    1.0000 </r>
       <r>    3.3849    1.0000 </r>
       <r>    3.3937    1.0000 </r>
       <r>    3.4631    1.0000 </r>
       <r>    3.4662    1.0000 </r>
       <r>    3.4673    1.0000 </r>
       <r>    3.7391    1.0000 </r>
       <r>    3.7401    1.0000 </r>
       <r>    3.7405    1.0000 </r>
       <r>    3.7437    1.0000 </r>
       <r>    3.7438    1.0000 </r>
       <r>    3.7555    1.0000 </r>
       <r>    3.7769    1.0000 </r>
       <r>    3.7800    1.0000 </r>
       <r>    3.7817    1.0000 </r>
       <r>    4.0445    1.0000 </r>
       <r>    4.0932    1.0000 </r>
       <r>    4.0967    1.0000 </r>
       <r>    4.0973    1.0000 </r>
       <r>    4.3362    1.0000 </r>
       <r>    4.3405    1.0000 </r>
       <r>    4.3408    1.0000 </r>
       <r>    4.4059    1.0000 </r>
       <r>    4.4065    1.0000 </r>
       <r>    4.4191    1.0000 </r>
       <r>    4.5593    1.0000 </r>
       <r>    4.5642    1.0000 </r>
       <r>    4.8635    1.0000 </r>
       <r>    4.8693    1.0000 </r>
       <r>    4.8694    1.0000 </r>
       <r>    5.3448    1.0000 </r>
       <r>    5.3501    1.0000 </r>
       <r>    6.5597    0.0000 </r>
       <r>    6.5608    0.0000 </r>
       <r>    6.5648    0.0000 </r>
       <r>    7.0000    0.0000 </r>
       <r>    7.0042    0.0000 </r>
       <r>    7.0068    0.0000 </r>
       <r>    7.2323    0.0000 </r>
       <r>    7.4857    0.0000 </r>
       <r>    7.4897    0.0000 </r>
       <r>    7.4920    0.0000 </r>
       <r>    7.6162    0.0000 </r>
       <r>    7.6222    0.0000 </r>
       <r>    7.6239    0.0000 </r>
       <r>    7.7749    0.0000 </r>
       <r>    7.7812    0.0000 </r>
       <r>    7.7814    0.0000 </r>
       <r>    7.7982    0.0000 </r>
       <r>    7.8013    0.0000 </r>
       <r>    7.8024    0.0000 </r>
       <r>    8.0254    0.0000 </r>
       <r>    8.0298    0.0000 </r>
       <r>    8.0304    0.0000 </r>
       <r>    8.0306    0.0000 </r>
       <r>    8.0373    0.0000 </r>
       <r>    8.0394    0.0000 </r>
       <r>    8.0795    0.0000 </r>
       <r>    8.2919    0.0000 </r>
       <r>    8.2960    0.0000 </r>
       <r>    8.2963    0.0000 </r>
       <r>    8.4926    0.0000 </r>
       <r>    8.5006    0.0000 </r>
       <r>    8.5017    0.0000 </r>
       <r>    8.5053    0.0000 </r>
       <r>    8.5102    0.0000 </r>
       <r>    8.5236    0.0000 </r>
       <r>    8.5425    0.0000 </r>
      </set>
     </set>
    </set>
   </array>
  </eigenvalues>
  <separator name="orbital magnetization" >
   <v name="MAGDIPOLOUT">      0.00000000      0.00000000      0.00000000</v>
  </separator>
  <dos>
   <i name="efermi">      5.60339596 </i>
   <total>
    <array>
     <dimension dim="1">gridpoints</dimension>
     <dimension dim="2">spin</dimension>
     <field>energy</field>
     <field>total</field>
     <field>integrated</field>
     <set>
      <set comment="spin 1">
       <r>    -6.7206     0.0000     0.0000 </r>
       <r>    -6.6672     0.0000     0.0000 </r>
       <r>    -6.6139     0.0000     0.0000 </r>
       <r>    -6.5605     0.0000     0.0000 </r>
       <r>    -6.5072     0.0000     0.0000 </r>
       <r>    -6.4539     0.0000     0.0000 </r>
       <r>    -6.4005     0.0000     0.0000 </r>
       <r>    -6.3472     0.0000     0.0000 </r>
       <r>    -6.2939     0.0000     0.0000 </r>
       <r>    -6.2405     0.0000     0.0000 </r>
       <r>    -6.1872     0.0000     0.0000 </r>
       <r>    -6.1339     0.0013     0.0001 </r>
       <r>    -6.0805     0.2518     0.0135 </r>
       <r>    -6.0272     6.0501     0.3362 </r>
       <r>    -5.9739    20.2363     1.4155 </r>
       <r>    -5.9205    10.2116     1.9602 </r>
       <r>    -5.8672     0.7401     1.9996 </r>
       <r>    -5.8138     0.0068     2.0000 </r>
       <r>    -5.7605     0.0000     2.0000 </r>
       <r>    -5.7072     0.0000     2.0000 </r>
       <r>    -5.6538     0.0000     2.0000 </r>
       <r>    -5.6005     0.0072     2.0004 </r>
       <r>    -5.5472     1.1247     2.0604 </r>
       <r>    -5.4938    22.0783     3.2379 </r>
       <r>    -5.4405    61.5497     6.5208 </r>
       <r>    -5.3872    26.1300     7.9144 </r>
       <r>    -5.3338     1.5921     7.9993 </r>
       <r>    -5.2805     0.0124     8.0000 </r>
       <r>    -5.2271     0.0000     8.0000 </r>
       <r>    -5.1738     0.0000     8.0000 </r>
       <r>    -5.1205     0.0007     8.0000 </r>
       <r>    -5.0671     0.2327     8.0124 </r>
       <r>    -5.0138     9.5176     8.5201 </r>
       <r>    -4.9605    52.9144    11.3423 </r>
       <r>    -4.9071    44.2453    13.7022 </r>
       <r>    -4.8538     5.4928    13.9952 </r>
       <r>    -4.8005     0.0906    14.0000 </r>
       <r>    -4.7471     0.0002    14.0000 </r>
       <r>    -4.6938     0.0001    14.0000 </r>
       <r>    -4.6405     0.0416    14.0022 </r>
       <r>    -4.5871     2.2303    14.1212 </r>
       <r>    -4.5338    16.0936    14.9796 </r>
       <r>    -4.4804    26.3669    16.3859 </r>
       <r>    -4.4271    55.7201    19.3577 </r>
       <r>    -4.3738    44.0340    21.7063 </r>
       <r>    -4.3204     5.4167    21.9953 </r>
       <r>    -4.2671     0.0888    22.0000 </r>
       <r>    -4.2138     0.0002    22.0000 </r>
       <r>    -4.1604     0.0062    22.0003 </r>
       <r>    -4.1071     1.2488    22.0669 </r>
       <r>    -4.0538    32.1364    23.7810 </r>
       <r>    -4.0004   118.2001    30.0853 </r>
       <r>    -3.9471    67.5767    33.6896 </r>
       <r>    -3.8937     8.6039    34.1485 </r>
       <r>    -3.8404    33.8238    35.9525 </r>
       <r>    -3.7871    59.3394    39.1174 </r>
       <r>    -3.7337    15.9427    39.9677 </r>
       <r>    -3.6804     0.6021    39.9998 </r>
       <r>    -3.6271     0.0029    40.0000 </r>
       <r>    -3.5737     0.0000    40.0000 </r>
       <r>    -3.5204     0.0000    40.0000 </r>
       <r>    -3.4671     0.0053    40.0003 </r>
       <r>    -3.4137     0.9131    40.0490 </r>
       <r>    -3.3604    19.7834    41.1042 </r>
       <r>    -3.3071    60.9808    44.3566 </r>
       <r>    -3.2537    28.8128    45.8934 </r>
       <r>    -3.2004     1.9812    45.9991 </r>
       <r>    -3.1470     0.0177    46.0000 </r>
       <r>    -3.0937     0.0088    46.0005 </r>
       <r>    -3.0404     1.2614    46.0677 </r>
       <r>    -2.9870    23.1846    47.3043 </r>
       <r>    -2.9337    61.4654    50.5826 </r>
       <r>    -2.8804    26.4435    51.9930 </r>
       <r>    -2.8270    35.0792    53.8640 </r>
       <r>    -2.7737   119.0652    60.2145 </r>
       <r>    -2.7204    65.5269    63.7094 </r>
       <r>    -2.6670     5.3886    63.9968 </r>
       <r>    -2.6137     0.0594    64.0000 </r>
       <r>    -2.5603     0.0001    64.0000 </r>
       <r>    -2.5070     0.0000    64.0000 </r>
       <r>    -2.4537     0.0000    64.0000 </r>
       <r>    -2.4003     0.0000    64.0000 </r>
       <r>    -2.3470     0.0000    64.0000 </r>
       <r>    -2.2937     0.0000    64.0000 </r>
       <r>    -2.2403     0.0000    64.0000 </r>
       <r>    -2.1870     0.0000    64.0000 </r>
       <r>    -2.1337     0.0000    64.0000 </r>
       <r>    -2.0803     0.0000    64.0000 </r>
       <r>    -2.0270     0.0000    64.0000 </r>
       <r>    -1.9737     0.0000    64.0000 </r>
       <r>    -1.9203     0.0000    64.0000 </r>
       <r>    -1.8670     0.0000    64.0000 </r>
       <r>    -1.8136     0.0000    64.0000 </r>
       <r>    -1.7603     0.0000    64.0000 </r>
       <r>    -1.7070     0.0000    64.0000 </r>
       <r>    -1.6536     0.0000    64.0000 </r>
       <r>    -1.6003     0.0000    64.0000 </r>
       <r>    -1.5470     0.0000    64.0000 </r>
       <r>    -1.4936     0.0000    64.0000 </r>
       <r>    -1.4403     0.0000    64.0000 </r>
       <r>    -1.3870     0.0127    64.0007 </r>
       <r>    -1.3336     1.9993    64.1073 </r>
       <r>    -1.2803    40.8683    66.2871 </r>
       <r>    -1.2269   123.4563    72.8717 </r>
       <r>    -1.1736    84.2909    77.3675 </r>
       <r>    -1.1203    65.7901    80.8765 </r>
       <r>    -1.0669    38.9397    82.9533 </r>
       <r>    -1.0136    64.7372    86.4062 </r>
       <r>    -0.9603    67.1559    89.9880 </r>
       <r>    -0.9069    60.1232    93.1947 </r>
       <r>    -0.8536    14.5609    93.9714 </r>
       <r>    -0.8003     0.5345    93.9999 </r>
       <r>    -0.7469     0.0026    94.0000 </r>
       <r>    -0.6936     0.0000    94.0000 </r>
       <r>    -0.6403     0.0000    94.0000 </r>
       <r>    -0.5869     0.0000    94.0000 </r>
       <r>    -0.5336     0.0000    94.0000 </r>
       <r>    -0.4802     0.0000    94.0000 </r>
       <r>    -0.4269     0.0000    94.0000 </r>
       <r>    -0.3736     0.0051    94.0003 </r>
       <r>    -0.3202     0.6123    94.0329 </r>
       <r>    -0.2669     9.6329    94.5467 </r>
       <r>    -0.2136    35.3611    96.4327 </r>
       <r>    -0.1602   103.7839   101.9682 </r>
       <r>    -0.1069    97.6198   107.1748 </r>
       <r>    -0.0536    15.1393   107.9823 </r>
       <r>    -0.0002     0.3313   108.0000 </r>
       <r>     0.0531     0.0009   108.0000 </r>
       <r>     0.1065     0.0000   108.0000 </r>
       <r>     0.1598     0.0000   108.0000 </r>
       <r>     0.2131     0.0000   108.0000 </r>
       <r>     0.2665     0.0000   108.0000 </r>
       <r>     0.3198     0.0000   108.0000 </r>
       <r>     0.3731     0.0000   108.0000 </r>
       <r>     0.4265     0.0000   108.0000 </r>
       <r>     0.4798     0.0000   108.0000 </r>
       <r>     0.5331     0.0000   108.0000 </r>
       <r>     0.5865     0.0190   108.0010 </r>
       <r>     0.6398     2.0531   108.1105 </r>
       <r>     0.6931    29.0872   109.6619 </r>
       <r>     0.7465    60.7332   112.9012 </r>
       <r>     0.7998    19.6758   113.9506 </r>
       <r>     0.8532     0.9205   113.9997 </r>
       <r>     0.9065     0.0097   114.0002 </r>
       <r>     0.9598     0.7780   114.0417 </r>
       <r>     1.0132    18.2807   115.0167 </r>
       <r>     1.0665    60.5608   118.2468 </r>
       <r>     1.1198    30.6017   119.8790 </r>
       <r>     1.1732     2.2476   119.9989 </r>
       <r>     1.2265     0.0214   120.0000 </r>
       <r>     1.2798     0.0000   120.0000 </r>
       <r>     1.3332     0.0000   120.0000 </r>
       <r>     1.3865     0.0000   120.0000 </r>
       <r>     1.4399     0.0000   120.0000 </r>
       <r>     1.4932     0.0004   120.0000 </r>
       <r>     1.5465     0.2088   120.0112 </r>
       <r>     1.5999    11.9692   120.6495 </r>
       <r>     1.6532    95.1773   125.7259 </r>
       <r>     1.7065   143.7015   133.3904 </r>
       <r>     1.7599    73.8171   137.3275 </r>
       <r>     1.8132    12.2619   137.9815 </r>
       <r>     1.8665     0.3455   137.9999 </r>
       <r>     1.9199     0.0012   138.0000 </r>
       <r>     1.9732     0.0000   138.0000 </r>
       <r>     2.0265     0.0000   138.0000 </r>
       <r>     2.0799     0.0000   138.0000 </r>
       <r>     2.1332     0.0083   138.0004 </r>
       <r>     2.1866     1.2329   138.0662 </r>
       <r>     2.2399    23.1239   139.2995 </r>
       <r>     2.2932    64.9040   142.7613 </r>
       <r>     2.3466    79.0630   146.9782 </r>
       <r>     2.3999   149.6096   154.9577 </r>
       <r>     2.4532   105.6510   160.5927 </r>
       <r>     2.5066    25.1400   161.9336 </r>
       <r>     2.5599     1.2364   161.9996 </r>
       <r>     2.6132     0.0773   162.0037 </r>
       <r>     2.6666     6.0496   162.3263 </r>
       <r>     2.7199    69.5705   166.0370 </r>
       <r>     2.7733   117.7201   172.3157 </r>
       <r>     2.8266    30.4657   173.9406 </r>
       <r>     2.8799     1.1608   174.0025 </r>
       <r>     2.9333     4.8156   174.2594 </r>
       <r>     2.9866    60.9532   177.5104 </r>
       <r>     3.0399   119.3874   183.8780 </r>
       <r>     3.0933    37.9504   185.9021 </r>
       <r>     3.1466     1.8232   185.9994 </r>
       <r>     3.1999     0.0121   186.0000 </r>
       <r>     3.2533     0.1363   186.0073 </r>
       <r>     3.3066     8.2040   186.4449 </r>
       <r>     3.3599    73.3521   190.3572 </r>
       <r>     3.4133   118.9780   196.7030 </r>
       <r>     3.4666    79.1962   200.9270 </r>
       <r>     3.5200    50.1612   203.6024 </r>
       <r>     3.5733     7.3081   203.9922 </r>
       <r>     3.6266     0.2958   204.0079 </r>
       <r>     3.6800     9.7990   204.5306 </r>
       <r>     3.7333    93.0139   209.4916 </r>
       <r>     3.7866   162.7594   218.1725 </r>
       <r>     3.8400    65.7602   221.6799 </r>
       <r>     3.8933     5.9146   221.9954 </r>
       <r>     3.9466     0.2413   222.0082 </r>
       <r>     4.0000     4.9307   222.2712 </r>
       <r>     4.0533    30.6845   223.9078 </r>
       <r>     4.1067    67.6845   227.5178 </r>
       <r>     4.1600    41.9976   229.7578 </r>
       <r>     4.2133     4.4942   229.9975 </r>
       <r>     4.2667     2.0858   230.1088 </r>
       <r>     4.3200    30.0328   231.7106 </r>
       <r>     4.3733    80.4646   236.0023 </r>
       <r>     4.4267    79.9987   240.2691 </r>
       <r>     4.4800    31.0205   241.9236 </r>
       <r>     4.5333    16.6150   242.8097 </r>
       <r>     4.5867    40.9423   244.9934 </r>
       <r>     4.6400    17.7487   245.9401 </r>
       <r>     4.6934     1.1142   245.9995 </r>
       <r>     4.7467     0.0385   246.0016 </r>
       <r>     4.8000     2.7295   246.1472 </r>
       <r>     4.8534    33.1687   247.9162 </r>
       <r>     4.9067    59.4915   251.0893 </r>
       <r>     4.9600    16.4276   251.9655 </r>
       <r>     5.0134     0.6443   251.9998 </r>
       <r>     5.0667     0.0032   252.0000 </r>
       <r>     5.1200     0.0000   252.0000 </r>
       <r>     5.1734     0.0000   252.0000 </r>
       <r>     5.2267     0.0205   252.0011 </r>
       <r>     5.2800     1.8653   252.1006 </r>
       <r>     5.3334    22.3461   253.2924 </r>
       <r>     5.3867    39.5656   255.4027 </r>
       <r>     5.4401    10.7805   255.9777 </r>
       <r>     5.4934     0.4162   255.9999 </r>
       <r>     5.5467     0.0020   256.0000 </r>
       <r>     5.6001     0.0000   256.0000 </r>
       <r>     5.6534     0.0000   256.0000 </r>
       <r>     5.7067     0.0000   256.0000 </r>
       <r>     5.7601     0.0000   256.0000 </r>
       <r>     5.8134     0.0000   256.0000 </r>
       <r>     5.8667     0.0000   256.0000 </r>
       <r>     5.9201     0.0000   256.0000 </r>
       <r>     5.9734     0.0000   256.0000 </r>
       <r>     6.0268     0.0000   256.0000 </r>
       <r>     6.0801     0.0000   256.0000 </r>
       <r>     6.1334     0.0000   256.0000 </r>
       <r>     6.1868     0.0000   256.0000 </r>
       <r>     6.2401     0.0000   256.0000 </r>
       <r>     6.2934     0.0000   256.0000 </r>
       <r>     6.3468     0.0000   256.0000 </r>
       <r>     6.4001     0.0002   256.0000 </r>
       <r>     6.4534     0.1086   256.0058 </r>
       <r>     6.5068     6.1061   256.3315 </r>
       <r>     6.5601    45.9071   258.7800 </r>
       <r>     6.6134    51.4845   261.5260 </r>
       <r>     6.6668     8.6881   261.9893 </r>
       <r>     6.7201     0.1991   262.0000 </r>
       <r>     6.7735     0.0006   262.0000 </r>
       <r>     6.8268     0.0000   262.0000 </r>
       <r>     6.8801     0.0267   262.0014 </r>
       <r>     6.9335     2.5671   262.1383 </r>
       <r>     6.9868    32.3063   263.8614 </r>
       <r>     7.0401    59.8458   267.0534 </r>
       <r>     7.0935    17.0558   267.9631 </r>
       <r>     7.1468     0.9519   268.0138 </r>
       <r>     7.2001     6.1674   268.3428 </r>
       <r>     7.2535    20.2727   269.4240 </r>
       <r>     7.3068    10.0730   269.9613 </r>
       <r>     7.3602     0.7327   270.0004 </r>
       <r>     7.4135     1.6746   270.0897 </r>
       <r>     7.4668    26.5733   271.5070 </r>
       <r>     7.5202    61.6490   274.7951 </r>
       <r>     7.5735    32.4522   276.5260 </r>
       <r>     7.6268    55.5560   279.4891 </r>
       <r>     7.6802    42.4611   281.7538 </r>
       <r>     7.7335    18.5641   282.7440 </r>
       <r>     7.7868    89.7386   287.5303 </r>
       <r>     7.8402   100.9536   292.9147 </r>
       <r>     7.8935    19.7582   293.9685 </r>
       <r>     7.9468     2.7113   294.1132 </r>
       <r>     8.0002    42.7428   296.3929 </r>
       <r>     8.0535   129.9276   303.3227 </r>
       <r>     8.1069    75.1587   307.3314 </r>
       <r>     8.1602    12.0165   307.9723 </r>
       <r>     8.2135     1.7320   308.0647 </r>
       <r>     8.2669    22.8622   309.2840 </r>
       <r>     8.3202    61.6094   312.5700 </r>
       <r>     8.3735    25.3403   313.9216 </r>
       <r>     8.4269     4.9490   314.1856 </r>
       <r>     8.4802    52.6130   316.9917 </r>
       <r>     8.5335   131.8784   324.0256 </r>
       <r>     8.5869    66.4202   327.5682 </r>
       <r>     8.6402     7.8906   327.9890 </r>
       <r>     8.6936     0.2048   328.0000 </r>
       <r>     8.7469     0.0009   328.0000 </r>
       <r>     8.8002     0.0000   328.0000 </r>
       <r>     8.8536     0.0000   328.0000 </r>
       <r>     8.9069     0.0000   328.0000 </r>
       <r>     8.9602     0.0000   328.0000 </r>
       <r>     9.0136     0.0000   328.0000 </r>
       <r>     9.0669     0.0000   328.0000 </r>
       <r>     9.1202     0.0000   328.0000 </r>
       <r>     9.1736     0.0000   328.0000 </r>
       <r>     9.2269     0.0000   328.0000 </r>
       <r>     9.2802     0.0000   328.0000 </r>
      </set>
     </set>
    </array>
   </total>
  </dos>
 </calculation>
 <structure name="finalpos" >
  <crystal>
   <varray name="basis" >
    <v>      10.93252578       0.00000000       0.00000000 </v>
    <v>       0.00000000      10.93252578       0.00000000 </v>
    <v>       0.00000000       0.00000000      10.93252578 </v>
   </varray>
   <i name="volume">   1306.65679237 </i>
   <varray name="rec_basis" >
    <v>       0.09147017       0.00000000       0.00000000 </v>
    <v>       0.00000000       0.09147017       0.00000000 </v>
    <v>       0.00000000       0.00000000       0.09147017 </v>
   </varray>
  </crystal>
  <varray name="positions" >
   <v>       0.44024411       0.43750000       0.43750000 </v>
   <v>       0.93750000       0.43750000       0.43750000 </v>
   <v>       0.43750000       0.93750000       0.43750000 </v>
   <v>       0.93750000       0.93750000       0.43750000 </v>
   <v>       0.43750000       0.43750000       0.93750000 </v>
   <v>       0.93750000       0.43750000       0.93750000 </v>
   <v>       0.43750000       0.93750000       0.93750000 </v>
   <v>       0.93750000       0.93750000       0.93750000 </v>
   <v>       0.43750000       0.18750000       0.18750000 </v>
   <v>       0.93750000       0.18750000       0.18750000 </v>
   <v>       0.43750000       0.68750000       0.18750000 </v>
   <v>       0.93750000       0.68750000       0.18750000 </v>
   <v>       0.43750000       0.18750000       0.68750000 </v>
   <v>       0.93750000       0.18750000       0.68750000 </v>
   <v>       0.43750000       0.68750000       0.68750000 </v>
   <v>       0.93750000       0.68750000       0.68750000 </v>
   <v>       0.18750000       0.43750000       0.18750000 </v>
   <v>       0.68750000       0.43750000       0.18750000 </v>
   <v>       0.18750000       0.93750000       0.18750000 </v>
   <v>       0.68750000       0.93750000       0.18750000 </v>
   <v>       0.18750000       0.43750000       0.68750000 </v>
   <v>       0.68750000       0.43750000       0.68750000 </v>
   <v>       0.18750000       0.93750000       0.68750000 </v>
   <v>       0.68750000       0.93750000       0.68750000 </v>
   <v>       0.18750000       0.18750000       0.43750000 </v>
   <v>       0.68750000       0.18750000       0.43750000 </v>
   <v>       0.18750000       0.68750000       0.43750000 </v>
   <v>       0.68750000       0.68750000       0.43750000 </v>
   <v>       0.18750000       0.18750000       0.93750000 </v>
   <v>       0.68750000       0.18750000       0.93750000 </v>
   <v>       0.18750000       0.68750000       0.93750000 </v>
   <v>       0.68750000       0.68750000       0.93750000 </v>
   <v>       0.06250000       0.06250000       0.06250000 </v>
   <v>       0.56250000       0.06250000       0.06250000 </v>
   <v>       0.06250000       0.56250000       0.06250000 </v>
   <v>       0.56250000       0.56250000       0.06250000 </v>
   <v>       0.06250000       0.06250000       0.56250000 </v>
   <v>       0.56250000       0.06250000       0.56250000 </v>
   <v>       0.06250000       0.56250000       0.56250000 </v>
   <v>       0.56250000       0.56250000       0.56250000 </v>
   <v>       0.06250000       0.31250000       0.31250000 </v>
   <v>       0.56250000       0.31250000       0.31250000 </v>
   <v>       0.06250000       0.81250000       0.31250000 </v>
   <v>       0.56250000       0.81250000       0.31250000 </v>
   <v>       0.06250000       0.31250000       0.81250000 </v>
   <v>       0.56250000       0.31250000       0.81250000 </v>
   <v>       0.06250000       0.81250000       0.81250000 </v>
   <v>       0.56250000       0.81250000       0.81250000 </v>
   <v>       0.31250000       0.06250000       0.31250000 </v>
   <v>       0.81250000       0.06250000       0.31250000 </v>
   <v>       0.31250000       0.56524411       0.31250000 </v>
   <v>       0.81250000       0.56250000       0.31250000 </v>
   <v>       0.31250000       0.06250000       0.81250000 </v>
   <v>       0.81250000       0.06250000       0.81250000 </v>
   <v>       0.31250000       0.56250000       0.81250000 </v>
   <v>       0.81250000       0.56250000       0.81250000 </v>
   <v>       0.31250000       0.31250000       0.06250000 </v>
   <v>       0.81250000       0.31250000       0.06250000 </v>
   <v>       0.31250000       0.81250000       0.06250000 </v>
   <v>       0.81250000       0.81250000       0.06250000 </v>
   <v>       0.31250000       0.31250000       0.56250000 </v>
   <v>       0.81250000       0.31250000       0.56250000 </v>
   <v>       0.31250000       0.81250000       0.56250000 </v>
   <v>       0.81250000       0.81250000       0.56250000 </v>
  </varray>
 </structure>
</modeling>
