
     Program PWSCF v.5.3.0 (svn rev. 11974) starts on  3Feb2016 at 13:38:57 

     This program is part of the open-source Quantum ESPRESSO suite
     for quantum simulation of materials; please cite
         "P. Giannozzi et al., J. Phys.:Condens. Matter 21 395502 (2009);
          URL http://www.quantum-espresso.org", 
     in publications or presentations arising from this work. More details at
     http://www.quantum-espresso.org/quote

     Parallel version (MPI), running on    16 processors
     R & G space division:  proc/nbgrp/npool/nimage =      16
     Reading input from Si.in

     Current dimensions of program PWSCF are:
     Max number of different atomic species (ntypx) = 10
     Max number of k-points (npk) =  40000
     Max angular momentum in pseudopotentials (lmaxx) =  3
               file Si.pbe-n-kjpaw_psl.0.1.UPF: wavefunction(s)  3S renormalized

     Subspace diagonalization in iterative solution of the eigenvalue problem:
     one sub-group per k-point group (pool) will be used
     scalapack distributed-memory algorithm (size of sub-group:  2*  2 procs)

 
     Parallelization info
     --------------------
     sticks:   dense  smooth     PW     G-vecs:    dense   smooth      PW
     Min         424     424    109                26332    26332    3467
     Max         425     425    110                26336    26336    3472
     Sum        6785    6785   1757               421349   421349   55515
 


     bravais-lattice index     =            0
     lattice parameter (alat)  =      20.6591  a.u.
     unit-cell volume          =    8817.2783 (a.u.)^3
     number of atoms/cell      =           64
     number of atomic types    =            1
     number of electrons       =       256.00
     number of Kohn-Sham states=          154
     kinetic-energy cutoff     =      50.0000  Ry
     charge density cutoff     =     200.0000  Ry
     convergence threshold     =      1.0E-09
     mixing beta               =       0.7000
     number of iterations used =            8  plain     mixing
     Exchange-correlation      =  SLA  PW   PBX  PBC ( 1  4  3  4 0 0)

     celldm(1)=  20.659106  celldm(2)=   0.000000  celldm(3)=   0.000000
     celldm(4)=   0.000000  celldm(5)=   0.000000  celldm(6)=   0.000000

     crystal axes: (cart. coord. in units of alat)
               a(1) = (   1.000000   0.000000   0.000000 )  
               a(2) = (   0.000000   1.000000   0.000000 )  
               a(3) = (   0.000000   0.000000   1.000000 )  

     reciprocal axes: (cart. coord. in units 2 pi/alat)
               b(1) = (  1.000000  0.000000  0.000000 )  
               b(2) = (  0.000000  1.000000  0.000000 )  
               b(3) = (  0.000000  0.000000  1.000000 )  


     PseudoPot. # 1 for Si read from file:
     /home/togo/espresso/pseudo/Si.pbe-n-kjpaw_psl.0.1.UPF
     MD5 check sum: b9d333a40e496bef61db012f150758bf
     Pseudo is Projector augmented-wave + core cor, Zval =  4.0
     Generated using "atomic" code by A. Dal Corso  v.5.0.2 svn rev. 9415
     Shape of augmentation charge: PSQ
     Using radial grid of 1141 points,  4 beta functions with: 
                l(1) =   0
                l(2) =   0
                l(3) =   1
                l(4) =   1
     Q(r) pseudized with 0 coefficients 


     atomic species   valence    mass     pseudopotential
        Si             4.00    28.08550     Si( 1.00)

     No symmetry found



   Cartesian axes

     site n.     atom                  positions (alat units)
         1           Si  tau(   1) = (   0.4404043   0.4375000   0.4375000  )
         2           Si  tau(   2) = (   0.9375000   0.4375000   0.4375000  )
         3           Si  tau(   3) = (   0.4375000   0.9375000   0.4375000  )
         4           Si  tau(   4) = (   0.9375000   0.9375000   0.4375000  )
         5           Si  tau(   5) = (   0.4375000   0.4375000   0.9375000  )
         6           Si  tau(   6) = (   0.9375000   0.4375000   0.9375000  )
         7           Si  tau(   7) = (   0.4375000   0.9375000   0.9375000  )
         8           Si  tau(   8) = (   0.9375000   0.9375000   0.9375000  )
         9           Si  tau(   9) = (   0.4375000   0.1875000   0.1875000  )
        10           Si  tau(  10) = (   0.9375000   0.1875000   0.1875000  )
        11           Si  tau(  11) = (   0.4375000   0.6875000   0.1875000  )
        12           Si  tau(  12) = (   0.9375000   0.6875000   0.1875000  )
        13           Si  tau(  13) = (   0.4375000   0.1875000   0.6875000  )
        14           Si  tau(  14) = (   0.9375000   0.1875000   0.6875000  )
        15           Si  tau(  15) = (   0.4375000   0.6875000   0.6875000  )
        16           Si  tau(  16) = (   0.9375000   0.6875000   0.6875000  )
        17           Si  tau(  17) = (   0.1875000   0.4375000   0.1875000  )
        18           Si  tau(  18) = (   0.6875000   0.4375000   0.1875000  )
        19           Si  tau(  19) = (   0.1845957   0.9375000   0.1875000  )
        20           Si  tau(  20) = (   0.6875000   0.9375000   0.1875000  )
        21           Si  tau(  21) = (   0.1875000   0.4375000   0.6875000  )
        22           Si  tau(  22) = (   0.6875000   0.4375000   0.6875000  )
        23           Si  tau(  23) = (   0.1875000   0.9375000   0.6875000  )
        24           Si  tau(  24) = (   0.6875000   0.9375000   0.6875000  )
        25           Si  tau(  25) = (   0.1875000   0.1875000   0.4375000  )
        26           Si  tau(  26) = (   0.6875000   0.1875000   0.4375000  )
        27           Si  tau(  27) = (   0.1875000   0.6875000   0.4375000  )
        28           Si  tau(  28) = (   0.6875000   0.6875000   0.4375000  )
        29           Si  tau(  29) = (   0.1875000   0.1875000   0.9375000  )
        30           Si  tau(  30) = (   0.6875000   0.1875000   0.9375000  )
        31           Si  tau(  31) = (   0.1875000   0.6875000   0.9375000  )
        32           Si  tau(  32) = (   0.6875000   0.6875000   0.9375000  )
        33           Si  tau(  33) = (   0.0625000   0.0625000   0.0625000  )
        34           Si  tau(  34) = (   0.5625000   0.0625000   0.0625000  )
        35           Si  tau(  35) = (   0.0625000   0.5625000   0.0625000  )
        36           Si  tau(  36) = (   0.5625000   0.5625000   0.0625000  )
        37           Si  tau(  37) = (   0.0625000   0.0625000   0.5625000  )
        38           Si  tau(  38) = (   0.5625000   0.0625000   0.5625000  )
        39           Si  tau(  39) = (   0.0625000   0.5625000   0.5625000  )
        40           Si  tau(  40) = (   0.5625000   0.5625000   0.5625000  )
        41           Si  tau(  41) = (   0.0625000   0.3125000   0.3125000  )
        42           Si  tau(  42) = (   0.5625000   0.3125000   0.3125000  )
        43           Si  tau(  43) = (   0.0625000   0.8125000   0.3125000  )
        44           Si  tau(  44) = (   0.5625000   0.8125000   0.3125000  )
        45           Si  tau(  45) = (   0.0625000   0.3125000   0.8125000  )
        46           Si  tau(  46) = (   0.5625000   0.3125000   0.8125000  )
        47           Si  tau(  47) = (   0.0625000   0.8125000   0.8125000  )
        48           Si  tau(  48) = (   0.5625000   0.8125000   0.8125000  )
        49           Si  tau(  49) = (   0.3125000   0.0625000   0.3125000  )
        50           Si  tau(  50) = (   0.8125000   0.0625000   0.3125000  )
        51           Si  tau(  51) = (   0.3125000   0.5625000   0.3125000  )
        52           Si  tau(  52) = (   0.8125000   0.5625000   0.3125000  )
        53           Si  tau(  53) = (   0.3125000   0.0625000   0.8125000  )
        54           Si  tau(  54) = (   0.8125000   0.0625000   0.8125000  )
        55           Si  tau(  55) = (   0.3125000   0.5625000   0.8125000  )
        56           Si  tau(  56) = (   0.8125000   0.5625000   0.8125000  )
        57           Si  tau(  57) = (   0.3125000   0.3125000   0.0625000  )
        58           Si  tau(  58) = (   0.8125000   0.3125000   0.0625000  )
        59           Si  tau(  59) = (   0.3125000   0.8125000   0.0625000  )
        60           Si  tau(  60) = (   0.8125000   0.8125000   0.0625000  )
        61           Si  tau(  61) = (   0.3125000   0.3125000   0.5625000  )
        62           Si  tau(  62) = (   0.8125000   0.3125000   0.5625000  )
        63           Si  tau(  63) = (   0.3125000   0.8125000   0.5625000  )
        64           Si  tau(  64) = (   0.8125000   0.8125000   0.5625000  )

     number of k points=     4  gaussian smearing, width (Ry)=  0.0100
                       cart. coord. in units 2pi/alat
        k(    1) = (   0.2500000   0.2500000   0.2500000), wk =   0.5000000
        k(    2) = (  -0.2500000  -0.2500000   0.2500000), wk =   0.5000000
        k(    3) = (  -0.2500000   0.2500000  -0.2500000), wk =   0.5000000
        k(    4) = (   0.2500000  -0.2500000  -0.2500000), wk =   0.5000000

     Dense  grid:   421349 G-vectors     FFT dimensions: (  96,  96,  96)

     Largest allocated arrays     est. size (Mb)     dimensions
        Kohn-Sham Wavefunctions         7.73 Mb     (    3289,  154)
        NL pseudopotentials            25.70 Mb     (    3289,  512)
        Each V/rho on FFT grid          0.84 Mb     (   55296)
        Each G-vector array             0.20 Mb     (   26336)
        G-vector shells                 0.01 Mb     (    1719)
     Largest temporary arrays     est. size (Mb)     dimensions
        Auxiliary wavefunctions        30.91 Mb     (    3289,  616)
        Each subspace H/S matrix        1.45 Mb     (     308,  308)
        Each <psi_i|beta_j> matrix      1.20 Mb     (     512,  154)
        Arrays for rho mixing           6.75 Mb     (   55296,    8)

     Check: negative/imaginary core charge=   -0.000001    0.000000

     Initial potential from superposition of free atoms

     starting charge  255.96421, renormalised to  256.00000
     Starting wfc are  256 randomized atomic wfcs
     Checking if some PAW data can be deallocated... 

     total cpu time spent up to now is       16.0 secs

     per-process dynamical memory:   114.8 Mb

     Self-consistent Calculation

     iteration #  1     ecut=    50.00 Ry     beta=0.70
     Davidson diagonalization with overlap
     ethr =  1.00E-02,  avg # of iterations =  3.0

     Threshold (ethr) on eigenvalues was too large:
     Diagonalizing with lowered threshold

     Davidson diagonalization with overlap
     ethr =  7.00E-04,  avg # of iterations =  1.0

     total cpu time spent up to now is       63.5 secs

     total energy              =   -2990.45692431 Ry
     Harris-Foulkes estimate   =   -2990.87682850 Ry
     estimated scf accuracy    <       1.77324138 Ry

     iteration #  2     ecut=    50.00 Ry     beta=0.70
     Davidson diagonalization with overlap
     ethr =  6.93E-04,  avg # of iterations =  1.0

     total cpu time spent up to now is       77.4 secs

     total energy              =   -2990.52359605 Ry
     Harris-Foulkes estimate   =   -2990.52748498 Ry
     estimated scf accuracy    <       0.07633313 Ry

     iteration #  3     ecut=    50.00 Ry     beta=0.70
     Davidson diagonalization with overlap
     ethr =  2.98E-05,  avg # of iterations = 10.8

     total cpu time spent up to now is      107.1 secs

     total energy              =   -2990.53055708 Ry
     Harris-Foulkes estimate   =   -2990.53137602 Ry
     estimated scf accuracy    <       0.00199653 Ry

     iteration #  4     ecut=    50.00 Ry     beta=0.70
     Davidson diagonalization with overlap
     ethr =  7.80E-07,  avg # of iterations =  7.0

     total cpu time spent up to now is      143.5 secs

     total energy              =   -2990.53034071 Ry
     Harris-Foulkes estimate   =   -2990.53276632 Ry
     estimated scf accuracy    <       0.00757002 Ry

     iteration #  5     ecut=    50.00 Ry     beta=0.70
     Davidson diagonalization with overlap
     ethr =  7.80E-07,  avg # of iterations =  4.8

     total cpu time spent up to now is      167.6 secs

     total energy              =   -2990.53147459 Ry
     Harris-Foulkes estimate   =   -2990.53160300 Ry
     estimated scf accuracy    <       0.00037092 Ry

     iteration #  6     ecut=    50.00 Ry     beta=0.70
     Davidson diagonalization with overlap
     ethr =  1.45E-07,  avg # of iterations =  2.0

     total cpu time spent up to now is      183.8 secs

     total energy              =   -2990.53153969 Ry
     Harris-Foulkes estimate   =   -2990.53155699 Ry
     estimated scf accuracy    <       0.00004966 Ry

     iteration #  7     ecut=    50.00 Ry     beta=0.70
     Davidson diagonalization with overlap
     ethr =  1.94E-08,  avg # of iterations =  3.0

     total cpu time spent up to now is      201.8 secs

     total energy              =   -2990.53154881 Ry
     Harris-Foulkes estimate   =   -2990.53155064 Ry
     estimated scf accuracy    <       0.00000416 Ry

     iteration #  8     ecut=    50.00 Ry     beta=0.70
     Davidson diagonalization with overlap
     ethr =  1.62E-09,  avg # of iterations =  3.0

     total cpu time spent up to now is      222.8 secs

     total energy              =   -2990.53154997 Ry
     Harris-Foulkes estimate   =   -2990.53155019 Ry
     estimated scf accuracy    <       0.00000051 Ry

     iteration #  9     ecut=    50.00 Ry     beta=0.70
     Davidson diagonalization with overlap
     ethr =  2.01E-10,  avg # of iterations =  2.8

     total cpu time spent up to now is      240.8 secs

     total energy              =   -2990.53155000 Ry
     Harris-Foulkes estimate   =   -2990.53155010 Ry
     estimated scf accuracy    <       0.00000019 Ry

     iteration # 10     ecut=    50.00 Ry     beta=0.70
     Davidson diagonalization with overlap
     ethr =  7.55E-11,  avg # of iterations =  3.0

     total cpu time spent up to now is      257.7 secs

     total energy              =   -2990.53154998 Ry
     Harris-Foulkes estimate   =   -2990.53155004 Ry
     estimated scf accuracy    <       0.00000006 Ry

     iteration # 11     ecut=    50.00 Ry     beta=0.70
     Davidson diagonalization with overlap
     ethr =  2.44E-11,  avg # of iterations =  2.0

     total cpu time spent up to now is      274.2 secs

     total energy              =   -2990.53154999 Ry
     Harris-Foulkes estimate   =   -2990.53154999 Ry
     estimated scf accuracy    <          2.1E-09 Ry

     iteration # 12     ecut=    50.00 Ry     beta=0.70
     Davidson diagonalization with overlap
     ethr =  8.29E-13,  avg # of iterations =  3.0

     total cpu time spent up to now is      306.6 secs

     total energy              =   -2990.53154999 Ry
     Harris-Foulkes estimate   =   -2990.53155000 Ry
     estimated scf accuracy    <          1.8E-09 Ry

     iteration # 13     ecut=    50.00 Ry     beta=0.70
     Davidson diagonalization with overlap
     ethr =  6.99E-13,  avg # of iterations =  2.5

     total cpu time spent up to now is      324.3 secs

     End of self-consistent calculation

          k = 0.2500 0.2500 0.2500 ( 52563 PWs)   bands (ev):

    -5.6251  -5.0990  -5.0964  -5.0937  -4.5994  -4.5967  -4.5941  -4.1632
    -4.0659  -4.0634  -4.0608  -3.6563  -3.6493  -3.6475  -3.6454  -3.6448
    -3.6390  -3.4601  -3.4548  -3.4494  -2.9614  -2.9586  -2.9557  -2.5944
    -2.5892  -2.5843  -2.4298  -2.4231  -2.4216  -2.4190  -2.4180  -2.4131
    -0.8860  -0.8817  -0.8787  -0.8768  -0.8753  -0.8717  -0.7850  -0.7804
    -0.7757  -0.6657  -0.6622  -0.6586  -0.5813  -0.5762  -0.5707   0.1263
     0.2037   0.2066   0.2101   0.2115   0.2145   0.2182   1.0803   1.0855
     1.0904   1.4168   1.4183   1.4198   2.0251   2.0270   2.0281   2.0297
     2.0320   2.0324   2.0868   2.0885   2.0900   2.6377   2.6401   2.6424
     2.7376   2.7390   2.7428   2.7443   2.7458   2.7482   2.7944   2.7967
     2.7994   3.1031   3.1046   3.1066   3.1081   3.1101   3.1128   3.3697
     3.3718   3.3739   3.3847   3.3865   3.3874   3.7315   3.7347   3.7378
     3.7513   3.7565   3.7615   3.8373   3.8394   3.8416   4.1052   4.1114
     4.1141   4.1149   4.1168   4.1228   4.1516   4.1536   4.1565   4.4131
     4.4684   4.4710   4.4734   4.7122   4.7144   4.7168   4.7744   4.7787
     4.7836   4.9363   4.9363   5.2406   5.2435   5.2467   5.7239   5.7241
     6.9322   6.9363   6.9402   7.3727   7.3768   7.3806   7.5987   7.8586
     7.8620   7.8650   7.9871   7.9916   7.9964   8.1485   8.1515   8.1538
     8.1659   8.1692   8.1723   8.3954   8.3980   8.4025   8.4036   8.4061
     8.4086   8.4481

          k =-0.2500-0.2500 0.2500 ( 52563 PWs)   bands (ev):

    -5.6250  -5.1005  -5.0963  -5.0922  -4.6009  -4.5967  -4.5927  -4.1631
    -4.0676  -4.0633  -4.0591  -3.6567  -3.6500  -3.6471  -3.6452  -3.6443
    -3.6391  -3.4601  -3.4548  -3.4494  -2.9634  -2.9585  -2.9537  -2.5943
    -2.5892  -2.5843  -2.4300  -2.4235  -2.4212  -2.4192  -2.4179  -2.4129
    -0.8861  -0.8820  -0.8782  -0.8768  -0.8750  -0.8718  -0.7851  -0.7804
    -0.7757  -0.6657  -0.6622  -0.6586  -0.5833  -0.5762  -0.5688   0.1264
     0.2029   0.2063   0.2098   0.2127   0.2147   0.2181   1.0798   1.0854
     1.0908   1.4160   1.4183   1.4207   2.0253   2.0257   2.0288   2.0302
     2.0315   2.0333   2.0853   2.0880   2.0912   2.6378   2.6401   2.6424
     2.7372   2.7392   2.7432   2.7444   2.7468   2.7485   2.7933   2.7963
     2.7996   3.1021   3.1051   3.1063   3.1088   3.1110   3.1120   3.3699
     3.3718   3.3735   3.3840   3.3862   3.3885   3.7310   3.7348   3.7379
     3.7515   3.7566   3.7614   3.8367   3.8396   3.8424   4.1052   4.1111
     4.1143   4.1148   4.1172   4.1225   4.1505   4.1540   4.1570   4.4130
     4.4685   4.4709   4.4735   4.7114   4.7145   4.7178   4.7732   4.7787
     4.7850   4.9361   4.9363   5.2392   5.2436   5.2479   5.7239   5.7241
     6.9322   6.9363   6.9402   7.3719   7.3768   7.3815   7.5987   7.8580
     7.8619   7.8656   7.9871   7.9916   7.9965   8.1472   8.1512   8.1547
     8.1663   8.1694   8.1726   8.3957   8.3983   8.4016   8.4046   8.4063
     8.4077   8.4481

          k =-0.2500 0.2500-0.2500 ( 52563 PWs)   bands (ev):

    -5.6251  -5.0990  -5.0964  -5.0937  -4.5994  -4.5967  -4.5941  -4.1632
    -4.0659  -4.0634  -4.0608  -3.6563  -3.6493  -3.6475  -3.6454  -3.6448
    -3.6390  -3.4601  -3.4548  -3.4494  -2.9614  -2.9586  -2.9557  -2.5944
    -2.5892  -2.5843  -2.4298  -2.4231  -2.4216  -2.4190  -2.4180  -2.4131
    -0.8860  -0.8817  -0.8787  -0.8768  -0.8753  -0.8717  -0.7850  -0.7804
    -0.7757  -0.6657  -0.6622  -0.6586  -0.5813  -0.5762  -0.5707   0.1263
     0.2037   0.2066   0.2101   0.2115   0.2145   0.2182   1.0803   1.0855
     1.0904   1.4168   1.4183   1.4198   2.0251   2.0270   2.0281   2.0297
     2.0320   2.0324   2.0868   2.0885   2.0900   2.6377   2.6401   2.6424
     2.7376   2.7390   2.7428   2.7443   2.7458   2.7482   2.7944   2.7967
     2.7994   3.1031   3.1046   3.1066   3.1081   3.1101   3.1128   3.3697
     3.3718   3.3739   3.3847   3.3865   3.3874   3.7315   3.7347   3.7378
     3.7513   3.7565   3.7615   3.8373   3.8394   3.8416   4.1052   4.1114
     4.1141   4.1149   4.1168   4.1228   4.1516   4.1536   4.1565   4.4131
     4.4684   4.4710   4.4734   4.7122   4.7144   4.7168   4.7744   4.7787
     4.7836   4.9363   4.9363   5.2406   5.2435   5.2467   5.7239   5.7241
     6.9322   6.9363   6.9402   7.3727   7.3768   7.3806   7.5987   7.8586
     7.8620   7.8650   7.9871   7.9916   7.9964   8.1485   8.1515   8.1538
     8.1659   8.1692   8.1723   8.3954   8.3980   8.4025   8.4036   8.4061
     8.4086   8.4481

          k = 0.2500-0.2500-0.2500 ( 52563 PWs)   bands (ev):

    -5.6250  -5.1005  -5.0963  -5.0922  -4.6009  -4.5967  -4.5927  -4.1631
    -4.0676  -4.0633  -4.0591  -3.6567  -3.6500  -3.6471  -3.6452  -3.6442
    -3.6391  -3.4601  -3.4548  -3.4494  -2.9634  -2.9585  -2.9537  -2.5943
    -2.5892  -2.5843  -2.4300  -2.4235  -2.4212  -2.4192  -2.4179  -2.4129
    -0.8861  -0.8820  -0.8782  -0.8768  -0.8750  -0.8718  -0.7851  -0.7804
    -0.7757  -0.6657  -0.6622  -0.6586  -0.5832  -0.5762  -0.5688   0.1264
     0.2029   0.2063   0.2098   0.2127   0.2147   0.2181   1.0798   1.0854
     1.0908   1.4160   1.4183   1.4207   2.0253   2.0257   2.0288   2.0302
     2.0315   2.0333   2.0853   2.0880   2.0912   2.6378   2.6401   2.6424
     2.7372   2.7392   2.7432   2.7444   2.7468   2.7485   2.7933   2.7963
     2.7996   3.1021   3.1051   3.1063   3.1088   3.1110   3.1120   3.3699
     3.3718   3.3735   3.3840   3.3862   3.3885   3.7310   3.7348   3.7379
     3.7515   3.7566   3.7614   3.8367   3.8396   3.8424   4.1052   4.1111
     4.1143   4.1148   4.1172   4.1225   4.1505   4.1540   4.1570   4.4130
     4.4685   4.4709   4.4735   4.7114   4.7145   4.7178   4.7732   4.7787
     4.7850   4.9361   4.9363   5.2392   5.2436   5.2479   5.7239   5.7241
     6.9322   6.9363   6.9402   7.3719   7.3768   7.3815   7.5987   7.8580
     7.8619   7.8656   7.9871   7.9916   7.9965   8.1472   8.1512   8.1547
     8.1663   8.1694   8.1726   8.3957   8.3983   8.4016   8.4046   8.4063
     8.4077   8.4481

     the Fermi energy is     6.3274 ev

!    total energy              =   -2990.53155000 Ry
     Harris-Foulkes estimate   =   -2990.53155000 Ry
     estimated scf accuracy    <          6.1E-10 Ry

     total all-electron energy =    -37124.667103 Ry

     The total energy is the sum of the following terms:

     one-electron contribution =     178.60654120 Ry
     hartree contribution      =      35.70143739 Ry
     xc contribution           =    -391.44199805 Ry
     ewald contribution        =    -534.00622453 Ry
     one-center paw contrib.   =   -2279.39130600 Ry
     smearing contrib. (-TS)   =       0.00000000 Ry

     convergence has been achieved in  13 iterations

     Forces acting on atoms (Ry/au):

     atom    1 type  1   force =    -0.01593216   -0.00000919    0.00007691
     atom    2 type  1   force =    -0.00002081   -0.00000988   -0.00007620
     atom    3 type  1   force =    -0.00017651   -0.00010977   -0.00022749
     atom    4 type  1   force =    -0.00024564   -0.00011352    0.00023211
     atom    5 type  1   force =     0.00001224    0.00000942   -0.00007735
     atom    6 type  1   force =    -0.00005044    0.00000888    0.00007641
     atom    7 type  1   force =    -0.00070627    0.00010967    0.00022695
     atom    8 type  1   force =    -0.00021369    0.00011399   -0.00023246
     atom    9 type  1   force =    -0.00075947   -0.00011254    0.00000413
     atom   10 type  1   force =    -0.00023830    0.00024294   -0.00010449
     atom   11 type  1   force =    -0.00075519    0.00033647    0.00000080
     atom   12 type  1   force =    -0.00023779   -0.00022387    0.00010408
     atom   13 type  1   force =    -0.00056538   -0.00003164    0.00009975
     atom   14 type  1   force =    -0.00004299   -0.00008481    0.00000033
     atom   15 type  1   force =    -0.00056984   -0.00019182   -0.00010458
     atom   16 type  1   force =    -0.00004412    0.00006571    0.00000039
     atom   17 type  1   force =     0.00017686   -0.00011018    0.00022739
     atom   18 type  1   force =     0.00024539   -0.00011418   -0.00023255
     atom   19 type  1   force =     0.01593297   -0.00000875   -0.00007672
     atom   20 type  1   force =     0.00002025   -0.00000964    0.00007649
     atom   21 type  1   force =     0.00070638    0.00010895   -0.00022686
     atom   22 type  1   force =     0.00021352    0.00011334    0.00023286
     atom   23 type  1   force =    -0.00001124    0.00001021    0.00007727
     atom   24 type  1   force =     0.00004934    0.00000972   -0.00007667
     atom   25 type  1   force =     0.00075536    0.00033756   -0.00000077
     atom   26 type  1   force =     0.00023728   -0.00022241   -0.00010379
     atom   27 type  1   force =     0.00075992   -0.00011373   -0.00000472
     atom   28 type  1   force =     0.00023806    0.00024160    0.00010469
     atom   29 type  1   force =     0.00057078   -0.00019040    0.00010476
     atom   30 type  1   force =     0.00004338    0.00006799   -0.00000082
     atom   31 type  1   force =     0.00056609   -0.00003282   -0.00009947
     atom   32 type  1   force =     0.00004206   -0.00008677   -0.00000031
     atom   33 type  1   force =    -0.00395091    0.00273701   -0.00267400
     atom   34 type  1   force =     0.00026826    0.00006643   -0.00001009
     atom   35 type  1   force =     0.00008633    0.00006482   -0.00002499
     atom   36 type  1   force =    -0.00008622    0.00007475    0.00001181
     atom   37 type  1   force =     0.00008643    0.00007631   -0.00001235
     atom   38 type  1   force =    -0.00008630    0.00006615    0.00002524
     atom   39 type  1   force =    -0.00026893    0.00006476    0.00001003
     atom   40 type  1   force =     0.00395118    0.00273566    0.00267431
     atom   41 type  1   force =     0.00004781   -0.00007684    0.00001179
     atom   42 type  1   force =     0.00390366   -0.00273019   -0.00267848
     atom   43 type  1   force =    -0.00390344   -0.00273069    0.00267843
     atom   44 type  1   force =    -0.00004790   -0.00007725   -0.00001176
     atom   45 type  1   force =    -0.00023044   -0.00005389    0.00000305
     atom   46 type  1   force =    -0.00003828   -0.00008091   -0.00000801
     atom   47 type  1   force =     0.00003877   -0.00008163    0.00000829
     atom   48 type  1   force =     0.00023014   -0.00005476   -0.00000310
     atom   49 type  1   force =    -0.00387034   -0.00251868   -0.00242978
     atom   50 type  1   force =     0.00004067   -0.00006418   -0.00000866
     atom   51 type  1   force =     0.00387082   -0.00251954    0.00242958
     atom   52 type  1   force =    -0.00004110   -0.00006543    0.00000878
     atom   53 type  1   force =     0.00031161   -0.00007874   -0.00000969
     atom   54 type  1   force =    -0.00005029   -0.00005831    0.00000383
     atom   55 type  1   force =    -0.00031053   -0.00008011    0.00000987
     atom   56 type  1   force =     0.00004919   -0.00006056   -0.00000409
     atom   57 type  1   force =    -0.00000008    0.00008902    0.00001437
     atom   58 type  1   force =     0.00000011    0.00005648    0.00000176
     atom   59 type  1   force =    -0.00355880    0.00250912    0.00245426
     atom   60 type  1   force =    -0.00000931    0.00006810    0.00000720
     atom   61 type  1   force =     0.00355939    0.00250947   -0.00245409
     atom   62 type  1   force =     0.00000849    0.00006894   -0.00000669
     atom   63 type  1   force =     0.00000111    0.00008878   -0.00001463
     atom   64 type  1   force =    -0.00000115    0.00005538   -0.00000229

     Total force =     0.027190     Total SCF correction =     0.000050

     Writing output data file pwscf.save
 
     init_run     :     10.38s CPU     15.72s WALL (       1 calls)
     electrons    :    288.15s CPU    309.13s WALL (       1 calls)
     forces       :      4.09s CPU      4.20s WALL (       1 calls)

     Called by init_run:
     wfcinit      :      9.81s CPU     15.04s WALL (       1 calls)
     potinit      :      0.24s CPU      0.24s WALL (       1 calls)

     Called by electrons:
     c_bands      :    260.03s CPU    280.07s WALL (      14 calls)
     sum_band     :     24.03s CPU     24.18s WALL (      14 calls)
     v_of_rho     :      0.68s CPU      0.68s WALL (      14 calls)
     newd         :      0.98s CPU      1.01s WALL (      14 calls)
     PAW_pot      :      2.30s CPU      2.30s WALL (      14 calls)
     mix_rho      :      0.32s CPU      0.32s WALL (      14 calls)

     Called by c_bands:
     init_us_2    :      2.59s CPU      2.61s WALL (     120 calls)
     cegterg      :    249.58s CPU    254.01s WALL (      56 calls)

     Called by sum_band:
     sum_band:bec :      0.04s CPU      0.04s WALL (      56 calls)
     addusdens    :      1.00s CPU      1.10s WALL (      14 calls)

     Called by *egterg:
     h_psi        :    119.13s CPU    119.44s WALL (     255 calls)
     s_psi        :     30.29s CPU     30.35s WALL (     255 calls)
     g_psi        :      1.06s CPU      1.06s WALL (     195 calls)
     cdiaghg      :     38.19s CPU     38.28s WALL (     247 calls)

     Called by h_psi:
     add_vuspsi   :     30.50s CPU     30.54s WALL (     255 calls)

     General routines
     calbec       :     46.90s CPU     46.98s WALL (     327 calls)
     fft          :      0.39s CPU      0.40s WALL (     195 calls)
     fftw         :     59.33s CPU     59.55s WALL (   57036 calls)
     davcio       :      0.00s CPU      0.01s WALL (       4 calls)
 
     Parallel routines
     fft_scatter  :     17.88s CPU     17.75s WALL (   57231 calls)
 
     PWSCF        :  5m 2.91s CPU     5m50.61s WALL

 
   This run was terminated on:  13:44:48   3Feb2016            

=------------------------------------------------------------------------------=
   JOB DONE.
=------------------------------------------------------------------------------=
