
     Program PWSCF v.5.3.0 (svn rev. 11974) starts on  3Feb2016 at 13:31:57 

     This program is part of the open-source Quantum ESPRESSO suite
     for quantum simulation of materials; please cite
         "P. Giannozzi et al., J. Phys.:Condens. Matter 21 395502 (2009);
          URL http://www.quantum-espresso.org", 
     in publications or presentations arising from this work. More details at
     http://www.quantum-espresso.org/quote

     Parallel version (MPI), running on    16 processors
     R & G space division:  proc/nbgrp/npool/nimage =      16
     Reading input from Si.in

     Current dimensions of program PWSCF are:
     Max number of different atomic species (ntypx) = 10
     Max number of k-points (npk) =  40000
     Max angular momentum in pseudopotentials (lmaxx) =  3
               file Si.pbe-n-kjpaw_psl.0.1.UPF: wavefunction(s)  3S renormalized

     Subspace diagonalization in iterative solution of the eigenvalue problem:
     one sub-group per k-point group (pool) will be used
     scalapack distributed-memory algorithm (size of sub-group:  2*  2 procs)

 
     Parallelization info
     --------------------
     sticks:   dense  smooth     PW     G-vecs:    dense   smooth      PW
     Min         424     424    109                26332    26332    3467
     Max         425     425    110                26336    26336    3472
     Sum        6785    6785   1757               421349   421349   55515
 


     bravais-lattice index     =            0
     lattice parameter (alat)  =      20.6591  a.u.
     unit-cell volume          =    8817.2783 (a.u.)^3
     number of atoms/cell      =           64
     number of atomic types    =            1
     number of electrons       =       256.00
     number of Kohn-Sham states=          154
     kinetic-energy cutoff     =      50.0000  Ry
     charge density cutoff     =     200.0000  Ry
     convergence threshold     =      1.0E-09
     mixing beta               =       0.7000
     number of iterations used =            8  plain     mixing
     Exchange-correlation      =  SLA  PW   PBX  PBC ( 1  4  3  4 0 0)

     celldm(1)=  20.659106  celldm(2)=   0.000000  celldm(3)=   0.000000
     celldm(4)=   0.000000  celldm(5)=   0.000000  celldm(6)=   0.000000

     crystal axes: (cart. coord. in units of alat)
               a(1) = (   1.000000   0.000000   0.000000 )  
               a(2) = (   0.000000   1.000000   0.000000 )  
               a(3) = (   0.000000   0.000000   1.000000 )  

     reciprocal axes: (cart. coord. in units 2 pi/alat)
               b(1) = (  1.000000  0.000000  0.000000 )  
               b(2) = (  0.000000  1.000000  0.000000 )  
               b(3) = (  0.000000  0.000000  1.000000 )  


     PseudoPot. # 1 for Si read from file:
     /home/togo/espresso/pseudo/Si.pbe-n-kjpaw_psl.0.1.UPF
     MD5 check sum: b9d333a40e496bef61db012f150758bf
     Pseudo is Projector augmented-wave + core cor, Zval =  4.0
     Generated using "atomic" code by A. Dal Corso  v.5.0.2 svn rev. 9415
     Shape of augmentation charge: PSQ
     Using radial grid of 1141 points,  4 beta functions with: 
                l(1) =   0
                l(2) =   0
                l(3) =   1
                l(4) =   1
     Q(r) pseudized with 0 coefficients 


     atomic species   valence    mass     pseudopotential
        Si             4.00    28.08550     Si( 1.00)

     No symmetry found



   Cartesian axes

     site n.     atom                  positions (alat units)
         1           Si  tau(   1) = (   0.4404043   0.4375000   0.4375000  )
         2           Si  tau(   2) = (   0.9375000   0.4375000   0.4375000  )
         3           Si  tau(   3) = (   0.4375000   0.9375000   0.4375000  )
         4           Si  tau(   4) = (   0.9375000   0.9375000   0.4404043  )
         5           Si  tau(   5) = (   0.4375000   0.4375000   0.9375000  )
         6           Si  tau(   6) = (   0.9375000   0.4375000   0.9375000  )
         7           Si  tau(   7) = (   0.4375000   0.9375000   0.9375000  )
         8           Si  tau(   8) = (   0.9375000   0.9375000   0.9375000  )
         9           Si  tau(   9) = (   0.4375000   0.1875000   0.1875000  )
        10           Si  tau(  10) = (   0.9375000   0.1875000   0.1875000  )
        11           Si  tau(  11) = (   0.4375000   0.6875000   0.1875000  )
        12           Si  tau(  12) = (   0.9375000   0.6875000   0.1875000  )
        13           Si  tau(  13) = (   0.4375000   0.1875000   0.6875000  )
        14           Si  tau(  14) = (   0.9375000   0.1875000   0.6875000  )
        15           Si  tau(  15) = (   0.4375000   0.6875000   0.6875000  )
        16           Si  tau(  16) = (   0.9375000   0.6875000   0.6875000  )
        17           Si  tau(  17) = (   0.1875000   0.4375000   0.1875000  )
        18           Si  tau(  18) = (   0.6875000   0.4375000   0.1875000  )
        19           Si  tau(  19) = (   0.1875000   0.9375000   0.1875000  )
        20           Si  tau(  20) = (   0.6875000   0.9375000   0.1875000  )
        21           Si  tau(  21) = (   0.1875000   0.4375000   0.6875000  )
        22           Si  tau(  22) = (   0.6875000   0.4375000   0.6875000  )
        23           Si  tau(  23) = (   0.1875000   0.9375000   0.6875000  )
        24           Si  tau(  24) = (   0.6875000   0.9375000   0.6875000  )
        25           Si  tau(  25) = (   0.1875000   0.1875000   0.4375000  )
        26           Si  tau(  26) = (   0.6875000   0.1875000   0.4375000  )
        27           Si  tau(  27) = (   0.1875000   0.6875000   0.4375000  )
        28           Si  tau(  28) = (   0.6875000   0.6875000   0.4375000  )
        29           Si  tau(  29) = (   0.1875000   0.1875000   0.9375000  )
        30           Si  tau(  30) = (   0.6875000   0.1875000   0.9375000  )
        31           Si  tau(  31) = (   0.1875000   0.6875000   0.9375000  )
        32           Si  tau(  32) = (   0.6875000   0.6875000   0.9375000  )
        33           Si  tau(  33) = (   0.0625000   0.0625000   0.0625000  )
        34           Si  tau(  34) = (   0.5625000   0.0625000   0.0625000  )
        35           Si  tau(  35) = (   0.0625000   0.5625000   0.0625000  )
        36           Si  tau(  36) = (   0.5625000   0.5625000   0.0625000  )
        37           Si  tau(  37) = (   0.0625000   0.0625000   0.5625000  )
        38           Si  tau(  38) = (   0.5625000   0.0625000   0.5625000  )
        39           Si  tau(  39) = (   0.0625000   0.5625000   0.5625000  )
        40           Si  tau(  40) = (   0.5625000   0.5625000   0.5625000  )
        41           Si  tau(  41) = (   0.0625000   0.3125000   0.3125000  )
        42           Si  tau(  42) = (   0.5625000   0.3125000   0.3125000  )
        43           Si  tau(  43) = (   0.0625000   0.8125000   0.3125000  )
        44           Si  tau(  44) = (   0.5625000   0.8125000   0.3125000  )
        45           Si  tau(  45) = (   0.0625000   0.3125000   0.8125000  )
        46           Si  tau(  46) = (   0.5625000   0.3125000   0.8125000  )
        47           Si  tau(  47) = (   0.0625000   0.8125000   0.8125000  )
        48           Si  tau(  48) = (   0.5625000   0.8125000   0.8125000  )
        49           Si  tau(  49) = (   0.3125000   0.0625000   0.3125000  )
        50           Si  tau(  50) = (   0.8125000   0.0625000   0.3125000  )
        51           Si  tau(  51) = (   0.3125000   0.5625000   0.3125000  )
        52           Si  tau(  52) = (   0.8125000   0.5625000   0.3125000  )
        53           Si  tau(  53) = (   0.3125000   0.0625000   0.8125000  )
        54           Si  tau(  54) = (   0.8125000   0.0625000   0.8125000  )
        55           Si  tau(  55) = (   0.3125000   0.5625000   0.8125000  )
        56           Si  tau(  56) = (   0.8125000   0.5625000   0.8125000  )
        57           Si  tau(  57) = (   0.3125000   0.3125000   0.0625000  )
        58           Si  tau(  58) = (   0.8125000   0.3125000   0.0625000  )
        59           Si  tau(  59) = (   0.3125000   0.8125000   0.0625000  )
        60           Si  tau(  60) = (   0.8125000   0.8125000   0.0625000  )
        61           Si  tau(  61) = (   0.3125000   0.3125000   0.5625000  )
        62           Si  tau(  62) = (   0.8125000   0.3125000   0.5625000  )
        63           Si  tau(  63) = (   0.3125000   0.8125000   0.5625000  )
        64           Si  tau(  64) = (   0.8125000   0.8125000   0.5625000  )

     number of k points=     4  gaussian smearing, width (Ry)=  0.0100
                       cart. coord. in units 2pi/alat
        k(    1) = (   0.2500000   0.2500000   0.2500000), wk =   0.5000000
        k(    2) = (  -0.2500000  -0.2500000   0.2500000), wk =   0.5000000
        k(    3) = (  -0.2500000   0.2500000  -0.2500000), wk =   0.5000000
        k(    4) = (   0.2500000  -0.2500000  -0.2500000), wk =   0.5000000

     Dense  grid:   421349 G-vectors     FFT dimensions: (  96,  96,  96)

     Largest allocated arrays     est. size (Mb)     dimensions
        Kohn-Sham Wavefunctions         7.73 Mb     (    3289,  154)
        NL pseudopotentials            25.70 Mb     (    3289,  512)
        Each V/rho on FFT grid          0.84 Mb     (   55296)
        Each G-vector array             0.20 Mb     (   26336)
        G-vector shells                 0.01 Mb     (    1719)
     Largest temporary arrays     est. size (Mb)     dimensions
        Auxiliary wavefunctions        30.91 Mb     (    3289,  616)
        Each subspace H/S matrix        1.45 Mb     (     308,  308)
        Each <psi_i|beta_j> matrix      1.20 Mb     (     512,  154)
        Arrays for rho mixing           6.75 Mb     (   55296,    8)

     Check: negative/imaginary core charge=   -0.000001    0.000000

     Initial potential from superposition of free atoms

     starting charge  255.96421, renormalised to  256.00000
     Starting wfc are  256 randomized atomic wfcs
     Checking if some PAW data can be deallocated... 

     total cpu time spent up to now is       10.1 secs

     per-process dynamical memory:   114.8 Mb

     Self-consistent Calculation

     iteration #  1     ecut=    50.00 Ry     beta=0.70
     Davidson diagonalization with overlap
     ethr =  1.00E-02,  avg # of iterations =  3.0

     Threshold (ethr) on eigenvalues was too large:
     Diagonalizing with lowered threshold

     Davidson diagonalization with overlap
     ethr =  7.00E-04,  avg # of iterations =  1.0

     total cpu time spent up to now is       47.3 secs

     total energy              =   -2990.45692983 Ry
     Harris-Foulkes estimate   =   -2990.87682973 Ry
     estimated scf accuracy    <       1.77324119 Ry

     iteration #  2     ecut=    50.00 Ry     beta=0.70
     Davidson diagonalization with overlap
     ethr =  6.93E-04,  avg # of iterations =  1.0

     total cpu time spent up to now is       61.5 secs

     total energy              =   -2990.52359095 Ry
     Harris-Foulkes estimate   =   -2990.52748933 Ry
     estimated scf accuracy    <       0.07634381 Ry

     iteration #  3     ecut=    50.00 Ry     beta=0.70
     Davidson diagonalization with overlap
     ethr =  2.98E-05,  avg # of iterations = 11.5

     total cpu time spent up to now is       95.1 secs

     total energy              =   -2990.53046073 Ry
     Harris-Foulkes estimate   =   -2990.53140213 Ry
     estimated scf accuracy    <       0.00212930 Ry

     iteration #  4     ecut=    50.00 Ry     beta=0.70
     Davidson diagonalization with overlap
     ethr =  8.32E-07,  avg # of iterations =  6.0

     total cpu time spent up to now is      131.4 secs

     total energy              =   -2990.53002357 Ry
     Harris-Foulkes estimate   =   -2990.53311341 Ry
     estimated scf accuracy    <       0.00992037 Ry

     iteration #  5     ecut=    50.00 Ry     beta=0.70
     Davidson diagonalization with overlap
     ethr =  8.32E-07,  avg # of iterations =  5.0

     total cpu time spent up to now is      158.8 secs

     total energy              =   -2990.53147239 Ry
     Harris-Foulkes estimate   =   -2990.53161162 Ry
     estimated scf accuracy    <       0.00040106 Ry

     iteration #  6     ecut=    50.00 Ry     beta=0.70
     Davidson diagonalization with overlap
     ethr =  1.57E-07,  avg # of iterations =  2.0

     total cpu time spent up to now is      176.1 secs

     total energy              =   -2990.53154254 Ry
     Harris-Foulkes estimate   =   -2990.53155908 Ry
     estimated scf accuracy    <       0.00004699 Ry

     iteration #  7     ecut=    50.00 Ry     beta=0.70
     Davidson diagonalization with overlap
     ethr =  1.84E-08,  avg # of iterations =  3.0

     total cpu time spent up to now is      195.6 secs

     total energy              =   -2990.53155134 Ry
     Harris-Foulkes estimate   =   -2990.53155317 Ry
     estimated scf accuracy    <       0.00000416 Ry

     iteration #  8     ecut=    50.00 Ry     beta=0.70
     Davidson diagonalization with overlap
     ethr =  1.63E-09,  avg # of iterations =  3.0

     total cpu time spent up to now is      217.4 secs

     total energy              =   -2990.53155249 Ry
     Harris-Foulkes estimate   =   -2990.53155272 Ry
     estimated scf accuracy    <       0.00000057 Ry

     iteration #  9     ecut=    50.00 Ry     beta=0.70
     Davidson diagonalization with overlap
     ethr =  2.21E-10,  avg # of iterations =  3.0

     total cpu time spent up to now is      236.7 secs

     total energy              =   -2990.53155252 Ry
     Harris-Foulkes estimate   =   -2990.53155263 Ry
     estimated scf accuracy    <       0.00000023 Ry

     iteration # 10     ecut=    50.00 Ry     beta=0.70
     Davidson diagonalization with overlap
     ethr =  8.97E-11,  avg # of iterations =  2.0

     total cpu time spent up to now is      253.5 secs

     total energy              =   -2990.53155251 Ry
     Harris-Foulkes estimate   =   -2990.53155256 Ry
     estimated scf accuracy    <       0.00000006 Ry

     iteration # 11     ecut=    50.00 Ry     beta=0.70
     Davidson diagonalization with overlap
     ethr =  2.20E-11,  avg # of iterations =  2.0

     total cpu time spent up to now is      271.1 secs

     total energy              =   -2990.53155252 Ry
     Harris-Foulkes estimate   =   -2990.53155251 Ry
     estimated scf accuracy    <          1.8E-09 Ry

     iteration # 12     ecut=    50.00 Ry     beta=0.70
     Davidson diagonalization with overlap
     ethr =  6.91E-13,  avg # of iterations =  3.0

     total cpu time spent up to now is      297.3 secs

     total energy              =   -2990.53155252 Ry
     Harris-Foulkes estimate   =   -2990.53155252 Ry
     estimated scf accuracy    <          1.7E-09 Ry

     iteration # 13     ecut=    50.00 Ry     beta=0.70
     Davidson diagonalization with overlap
     ethr =  6.59E-13,  avg # of iterations =  3.0

     total cpu time spent up to now is      316.5 secs

     End of self-consistent calculation

          k = 0.2500 0.2500 0.2500 ( 52563 PWs)   bands (ev):

    -5.6250  -5.1011  -5.0953  -5.0930  -4.6012  -4.5955  -4.5934  -4.1621
    -4.0677  -4.0621  -4.0592  -3.6554  -3.6534  -3.6469  -3.6439  -3.6437
    -3.6421  -3.4596  -3.4548  -3.4520  -2.9612  -2.9564  -2.9524  -2.5936
    -2.5894  -2.5860  -2.4296  -2.4254  -2.4207  -2.4178  -2.4172  -2.4156
    -0.8868  -0.8821  -0.8778  -0.8743  -0.8737  -0.8726  -0.7823  -0.7798
    -0.7761  -0.6633  -0.6621  -0.6560  -0.5856  -0.5806  -0.5749   0.1226
     0.2046   0.2094   0.2112   0.2148   0.2160   0.2177   1.0775   1.0836
     1.0878   1.4156   1.4183   1.4214   2.0251   2.0268   2.0284   2.0300
     2.0320   2.0333   2.0877   2.0888   2.0915   2.6355   2.6389   2.6401
     2.7394   2.7413   2.7431   2.7447   2.7476   2.7505   2.7948   2.7997
     2.8020   3.1016   3.1045   3.1073   3.1084   3.1102   3.1125   3.3716
     3.3724   3.3747   3.3847   3.3875   3.3902   3.7287   3.7336   3.7356
     3.7486   3.7547   3.7567   3.8381   3.8411   3.8429   4.1030   4.1081
     4.1119   4.1143   4.1151   4.1164   4.1523   4.1556   4.1574   4.4091
     4.4714   4.4724   4.4760   4.7135   4.7169   4.7191   4.7696   4.7745
     4.7783   4.9350   4.9399   5.2424   5.2472   5.2495   5.7235   5.7293
     6.9347   6.9390   6.9400   7.3733   7.3774   7.3819   7.6002   7.8598
     7.8634   7.8672   7.9872   7.9893   7.9942   8.1496   8.1499   8.1554
     8.1682   8.1688   8.1733   8.3948   8.3963   8.3996   8.4021   8.4033
     8.4071   8.4506

          k =-0.2500-0.2500 0.2500 ( 52563 PWs)   bands (ev):

    -5.6250  -5.0990  -5.0964  -5.0937  -4.5995  -4.5966  -4.5941  -4.1632
    -4.0661  -4.0631  -4.0609  -3.6550  -3.6503  -3.6478  -3.6466  -3.6447
    -3.6379  -3.4593  -3.4548  -3.4502  -2.9626  -2.9570  -2.9561  -2.5944
    -2.5892  -2.5842  -2.4283  -2.4240  -2.4219  -2.4205  -2.4179  -2.4121
    -0.8880  -0.8824  -0.8778  -0.8758  -0.8745  -0.8711  -0.7862  -0.7803
    -0.7752  -0.6677  -0.6623  -0.6563  -0.5838  -0.5752  -0.5692   0.1263
     0.1995   0.2056   0.2109   0.2149   0.2165   0.2174   1.0795   1.0861
     1.0905   1.4139   1.4186   1.4224   2.0238   2.0274   2.0281   2.0293
     2.0323   2.0336   2.0849   2.0887   2.0916   2.6375   2.6401   2.6426
     2.7378   2.7391   2.7414   2.7442   2.7460   2.7498   2.7930   2.7962
     2.8007   3.1004   3.1057   3.1078   3.1087   3.1096   3.1132   3.3686
     3.3720   3.3742   3.3822   3.3867   3.3901   3.7305   3.7348   3.7378
     3.7535   3.7567   3.7600   3.8357   3.8406   3.8422   4.1059   4.1114
     4.1141   4.1152   4.1169   4.1219   4.1494   4.1550   4.1568   4.4129
     4.4679   4.4708   4.4744   4.7102   4.7151   4.7180   4.7731   4.7791
     4.7848   4.9319   4.9406   5.2379   5.2445   5.2484   5.7191   5.7289
     6.9325   6.9363   6.9400   7.3710   7.3787   7.3805   7.5987   7.8570
     7.8633   7.8654   7.9871   7.9918   7.9962   8.1486   8.1515   8.1537
     8.1651   8.1692   8.1732   8.3941   8.3988   8.4030   8.4031   8.4064
     8.4086   8.4482

          k =-0.2500 0.2500-0.2500 ( 52563 PWs)   bands (ev):

    -5.6251  -5.0997  -5.0973  -5.0917  -4.6002  -4.5978  -4.5924  -4.1642
    -4.0674  -4.0645  -4.0592  -3.6521  -3.6505  -3.6500  -3.6470  -3.6409
    -3.6391  -3.4577  -3.4547  -3.4498  -2.9647  -2.9606  -2.9560  -2.5923
    -2.5892  -2.5853  -2.4259  -2.4245  -2.4238  -2.4209  -2.4159  -2.4116
    -0.8842  -0.8826  -0.8824  -0.8783  -0.8753  -0.8705  -0.7849  -0.7805
    -0.7779  -0.6680  -0.6624  -0.6615  -0.5775  -0.5715  -0.5664   0.1300
     0.2040   0.2055   0.2068   0.2102   0.2122   0.2169   1.0829   1.0872
     1.0932   1.4153   1.4185   1.4211   2.0248   2.0262   2.0285   2.0301
     2.0315   2.0330   2.0848   2.0876   2.0888   2.6402   2.6413   2.6446
     2.7356   2.7382   2.7415   2.7436   2.7452   2.7467   2.7915   2.7934
     2.7981   3.1029   3.1050   3.1067   3.1078   3.1106   3.1134   3.3685
     3.3711   3.3717   3.3822   3.3854   3.3875   3.7338   3.7354   3.7407
     3.7559   3.7579   3.7650   3.8360   3.8380   3.8412   4.1122   4.1135
     4.1142   4.1163   4.1197   4.1254   4.1497   4.1519   4.1561   4.4172
     4.4659   4.4696   4.4703   4.7101   4.7121   4.7154   4.7790   4.7836
     4.7888   4.9325   4.9376   5.2377   5.2400   5.2447   5.7188   5.7244
     6.9325   6.9333   6.9378   7.3714   7.3762   7.3802   7.5972   7.8561
     7.8604   7.8640   7.9893   7.9937   7.9963   8.1461   8.1527   8.1534
     8.1665   8.1690   8.1703   8.3973   8.4017   8.4025   8.4054   8.4083
     8.4097   8.4459

          k = 0.2500-0.2500-0.2500 ( 52563 PWs)   bands (ev):

    -5.6250  -5.0990  -5.0963  -5.0938  -4.5993  -4.5968  -4.5941  -4.1632
    -4.0659  -4.0635  -4.0607  -3.6563  -3.6493  -3.6473  -3.6462  -3.6438
    -3.6392  -3.4593  -3.4548  -3.4502  -2.9610  -2.9602  -2.9546  -2.5943
    -2.5892  -2.5842  -2.4293  -2.4238  -2.4212  -2.4197  -2.4175  -2.4132
    -0.8855  -0.8820  -0.8813  -0.8783  -0.8741  -0.8685  -0.7860  -0.7803
    -0.7753  -0.6676  -0.6623  -0.6565  -0.5828  -0.5772  -0.5682   0.1263
     0.2042   0.2053   0.2065   0.2105   0.2159   0.2222   1.0802   1.0846
     1.0913   1.4142   1.4181   1.4226   2.0243   2.0258   2.0292   2.0302
     2.0310   2.0339   2.0854   2.0876   2.0923   2.6375   2.6401   2.6425
     2.7363   2.7401   2.7422   2.7450   2.7468   2.7480   2.7925   2.7972
     2.8002   3.1017   3.1056   3.1065   3.1073   3.1094   3.1148   3.3690
     3.3720   3.3737   3.3822   3.3867   3.3903   3.7315   3.7346   3.7369
     3.7534   3.7569   3.7601   3.8366   3.8386   3.8433   4.1068   4.1116
     4.1132   4.1144   4.1170   4.1225   4.1503   4.1526   4.1583   4.4129
     4.4679   4.4708   4.4744   4.7109   4.7136   4.7188   4.7735   4.7783
     4.7852   4.9319   4.9406   5.2388   5.2426   5.2495   5.7191   5.7289
     6.9323   6.9363   6.9401   7.3730   7.3749   7.3822   7.5987   7.8583
     7.8605   7.8668   7.9871   7.9918   7.9962   8.1481   8.1512   8.1543
     8.1657   8.1692   8.1728   8.3960   8.3981   8.4017   8.4020   8.4062
     8.4101   8.4482

     the Fermi energy is     6.3277 ev

!    total energy              =   -2990.53155252 Ry
     Harris-Foulkes estimate   =   -2990.53155252 Ry
     estimated scf accuracy    <          8.2E-10 Ry

     total all-electron energy =    -37124.667106 Ry

     The total energy is the sum of the following terms:

     one-electron contribution =     178.60655133 Ry
     hartree contribution      =      35.70143170 Ry
     xc contribution           =    -391.44199677 Ry
     ewald contribution        =    -534.00623299 Ry
     one-center paw contrib.   =   -2279.39130579 Ry
     smearing contrib. (-TS)   =       0.00000000 Ry

     convergence has been achieved in  13 iterations

     Forces acting on atoms (Ry/au):

     atom    1 type  1   force =    -0.01589094    0.00000121   -0.00047422
     atom    2 type  1   force =     0.00002333   -0.00000023    0.00005504
     atom    3 type  1   force =     0.00005410    0.00000044    0.00005531
     atom    4 type  1   force =    -0.00000644   -0.00000029   -0.01588984
     atom    5 type  1   force =     0.00005380   -0.00000033    0.00002388
     atom    6 type  1   force =    -0.00000622    0.00000102   -0.00000723
     atom    7 type  1   force =    -0.00047570    0.00000008   -0.00000764
     atom    8 type  1   force =     0.00002535   -0.00000005    0.00002211
     atom    9 type  1   force =    -0.00051920    0.00019074    0.00015577
     atom   10 type  1   force =     0.00011028   -0.00021885    0.00024060
     atom   11 type  1   force =    -0.00053401    0.00003257   -0.00006729
     atom   12 type  1   force =    -0.00010856    0.00023743    0.00022123
     atom   13 type  1   force =    -0.00051528   -0.00018641    0.00015339
     atom   14 type  1   force =     0.00011553    0.00022222    0.00024812
     atom   15 type  1   force =    -0.00053825   -0.00003760   -0.00007078
     atom   16 type  1   force =    -0.00011351   -0.00024166    0.00022932
     atom   17 type  1   force =     0.00030825   -0.00010013    0.00026870
     atom   18 type  1   force =     0.00016124   -0.00012338   -0.00019038
     atom   19 type  1   force =    -0.00018518    0.00010074    0.00015376
     atom   20 type  1   force =     0.00027089   -0.00011902    0.00030759
     atom   21 type  1   force =     0.00015525    0.00011924   -0.00018432
     atom   22 type  1   force =     0.00031435    0.00010495    0.00027684
     atom   23 type  1   force =     0.00027507    0.00012388    0.00031565
     atom   24 type  1   force =    -0.00018975   -0.00010413    0.00016219
     atom   25 type  1   force =     0.00011737    0.00011216   -0.00063738
     atom   26 type  1   force =     0.00012869   -0.00012486   -0.00063747
     atom   27 type  1   force =     0.00034037   -0.00033720   -0.00041322
     atom   28 type  1   force =     0.00035273    0.00034685   -0.00041400
     atom   29 type  1   force =     0.00003354   -0.00008680   -0.00001049
     atom   30 type  1   force =     0.00003295    0.00008549   -0.00000887
     atom   31 type  1   force =     0.00005184    0.00006758    0.00000988
     atom   32 type  1   force =     0.00005269   -0.00006681    0.00000866
     atom   33 type  1   force =     0.00001697    0.00006895    0.00001813
     atom   34 type  1   force =     0.00028103    0.00005470    0.00005378
     atom   35 type  1   force =     0.00005310    0.00005151    0.00005047
     atom   36 type  1   force =    -0.00002973    0.00008145    0.00001649
     atom   37 type  1   force =     0.00273146    0.00272894    0.00395693
     atom   38 type  1   force =    -0.00002211    0.00008839   -0.00000996
     atom   39 type  1   force =     0.00003778    0.00007762   -0.00002164
     atom   40 type  1   force =     0.00395563    0.00273425    0.00296192
     atom   41 type  1   force =    -0.00006360   -0.00000128   -0.00009692
     atom   42 type  1   force =     0.00390271   -0.00267708   -0.00245302
     atom   43 type  1   force =    -0.00245537    0.00245637    0.00378543
     atom   44 type  1   force =    -0.00009755    0.00001328   -0.00010881
     atom   45 type  1   force =    -0.00000185   -0.00000068    0.00000327
     atom   46 type  1   force =    -0.00009201   -0.00001928   -0.00005975
     atom   47 type  1   force =    -0.00005886    0.00000721   -0.00004370
     atom   48 type  1   force =     0.00022874    0.00000120    0.00000061
     atom   49 type  1   force =    -0.00002203   -0.00008884   -0.00000687
     atom   50 type  1   force =     0.00251082   -0.00250973    0.00384048
     atom   51 type  1   force =     0.00383994   -0.00250794    0.00273425
     atom   52 type  1   force =     0.00003987   -0.00007437   -0.00002107
     atom   53 type  1   force =     0.00027843   -0.00005652    0.00005540
     atom   54 type  1   force =     0.00001732   -0.00006905    0.00001830
     atom   55 type  1   force =    -0.00002817   -0.00008236    0.00001605
     atom   56 type  1   force =     0.00005776   -0.00005553    0.00005526
     atom   57 type  1   force =    -0.00009045    0.00002027   -0.00005980
     atom   58 type  1   force =     0.00000196    0.00000324   -0.00000104
     atom   59 type  1   force =     0.00022706    0.00000125   -0.00000251
     atom   60 type  1   force =    -0.00005893   -0.00000705   -0.00004380
     atom   61 type  1   force =     0.00378180    0.00245417   -0.00222472
     atom   62 type  1   force =    -0.00006188   -0.00000119   -0.00009774
     atom   63 type  1   force =    -0.00009827   -0.00001221   -0.00011095
     atom   64 type  1   force =    -0.00267616   -0.00267857    0.00390056

     Total force =     0.027173     Total SCF correction =     0.000059

     Writing output data file pwscf.save
 
     init_run     :      9.58s CPU      9.85s WALL (       1 calls)
     electrons    :    298.74s CPU    307.19s WALL (       1 calls)
     forces       :      4.45s CPU      4.61s WALL (       1 calls)

     Called by init_run:
     wfcinit      :      8.87s CPU      9.02s WALL (       1 calls)
     potinit      :      0.25s CPU      0.27s WALL (       1 calls)

     Called by electrons:
     c_bands      :    268.06s CPU    275.47s WALL (      14 calls)
     sum_band     :     26.05s CPU     26.35s WALL (      14 calls)
     v_of_rho     :      0.77s CPU      0.78s WALL (      14 calls)
     newd         :      1.37s CPU      1.43s WALL (      14 calls)
     PAW_pot      :      2.32s CPU      2.33s WALL (      14 calls)
     mix_rho      :      0.41s CPU      0.42s WALL (      14 calls)

     Called by c_bands:
     init_us_2    :      4.61s CPU      4.71s WALL (     120 calls)
     cegterg      :    261.75s CPU    269.00s WALL (      56 calls)

     Called by sum_band:
     sum_band:bec :      0.05s CPU      0.05s WALL (      56 calls)
     addusdens    :      1.44s CPU      1.61s WALL (      14 calls)

     Called by *egterg:
     h_psi        :    122.42s CPU    123.00s WALL (     254 calls)
     s_psi        :     31.18s CPU     31.23s WALL (     254 calls)
     g_psi        :      1.09s CPU      1.10s WALL (     194 calls)
     cdiaghg      :     37.72s CPU     37.81s WALL (     246 calls)

     Called by h_psi:
     add_vuspsi   :     32.04s CPU     32.11s WALL (     254 calls)

     General routines
     calbec       :     48.31s CPU     48.60s WALL (     326 calls)
     fft          :      0.51s CPU      0.51s WALL (     195 calls)
     fftw         :     58.67s CPU     59.00s WALL (   57276 calls)
     davcio       :      0.00s CPU      0.01s WALL (       4 calls)
 
     Parallel routines
     fft_scatter  :     18.02s CPU     17.27s WALL (   57471 calls)
 
     PWSCF        :  5m13.08s CPU     5m46.96s WALL

 
   This run was terminated on:  13:37:44   3Feb2016            

=------------------------------------------------------------------------------=
   JOB DONE.
=------------------------------------------------------------------------------=
