
     Program PWSCF v.5.3.0 (svn rev. 11974) starts on  3Feb2016 at 13:46:12 

     This program is part of the open-source Quantum ESPRESSO suite
     for quantum simulation of materials; please cite
         "P. Giannozzi et al., J. Phys.:Condens. Matter 21 395502 (2009);
          URL http://www.quantum-espresso.org", 
     in publications or presentations arising from this work. More details at
     http://www.quantum-espresso.org/quote

     Parallel version (MPI), running on    16 processors
     R & G space division:  proc/nbgrp/npool/nimage =      16
     Reading input from Si.in

     Current dimensions of program PWSCF are:
     Max number of different atomic species (ntypx) = 10
     Max number of k-points (npk) =  40000
     Max angular momentum in pseudopotentials (lmaxx) =  3
               file Si.pbe-n-kjpaw_psl.0.1.UPF: wavefunction(s)  3S renormalized

     Subspace diagonalization in iterative solution of the eigenvalue problem:
     one sub-group per k-point group (pool) will be used
     scalapack distributed-memory algorithm (size of sub-group:  2*  2 procs)

 
     Parallelization info
     --------------------
     sticks:   dense  smooth     PW     G-vecs:    dense   smooth      PW
     Min         424     424    109                26332    26332    3467
     Max         425     425    110                26336    26336    3472
     Sum        6785    6785   1757               421349   421349   55515
 


     bravais-lattice index     =            0
     lattice parameter (alat)  =      20.6591  a.u.
     unit-cell volume          =    8817.2783 (a.u.)^3
     number of atoms/cell      =           64
     number of atomic types    =            1
     number of electrons       =       256.00
     number of Kohn-Sham states=          154
     kinetic-energy cutoff     =      50.0000  Ry
     charge density cutoff     =     200.0000  Ry
     convergence threshold     =      1.0E-09
     mixing beta               =       0.7000
     number of iterations used =            8  plain     mixing
     Exchange-correlation      =  SLA  PW   PBX  PBC ( 1  4  3  4 0 0)

     celldm(1)=  20.659106  celldm(2)=   0.000000  celldm(3)=   0.000000
     celldm(4)=   0.000000  celldm(5)=   0.000000  celldm(6)=   0.000000

     crystal axes: (cart. coord. in units of alat)
               a(1) = (   1.000000   0.000000   0.000000 )  
               a(2) = (   0.000000   1.000000   0.000000 )  
               a(3) = (   0.000000   0.000000   1.000000 )  

     reciprocal axes: (cart. coord. in units 2 pi/alat)
               b(1) = (  1.000000  0.000000  0.000000 )  
               b(2) = (  0.000000  1.000000  0.000000 )  
               b(3) = (  0.000000  0.000000  1.000000 )  


     PseudoPot. # 1 for Si read from file:
     /home/togo/espresso/pseudo/Si.pbe-n-kjpaw_psl.0.1.UPF
     MD5 check sum: b9d333a40e496bef61db012f150758bf
     Pseudo is Projector augmented-wave + core cor, Zval =  4.0
     Generated using "atomic" code by A. Dal Corso  v.5.0.2 svn rev. 9415
     Shape of augmentation charge: PSQ
     Using radial grid of 1141 points,  4 beta functions with: 
                l(1) =   0
                l(2) =   0
                l(3) =   1
                l(4) =   1
     Q(r) pseudized with 0 coefficients 


     atomic species   valence    mass     pseudopotential
        Si             4.00    28.08550     Si( 1.00)

      2 Sym. Ops. (no inversion) found



   Cartesian axes

     site n.     atom                  positions (alat units)
         1           Si  tau(   1) = (   0.4404043   0.4375000   0.4375000  )
         2           Si  tau(   2) = (   0.9375000   0.4375000   0.4375000  )
         3           Si  tau(   3) = (   0.4375000   0.9375000   0.4375000  )
         4           Si  tau(   4) = (   0.9375000   0.9375000   0.4375000  )
         5           Si  tau(   5) = (   0.4375000   0.4375000   0.9375000  )
         6           Si  tau(   6) = (   0.9375000   0.4375000   0.9375000  )
         7           Si  tau(   7) = (   0.4375000   0.9375000   0.9375000  )
         8           Si  tau(   8) = (   0.9375000   0.9375000   0.9375000  )
         9           Si  tau(   9) = (   0.4375000   0.1875000   0.1875000  )
        10           Si  tau(  10) = (   0.9375000   0.1875000   0.1875000  )
        11           Si  tau(  11) = (   0.4375000   0.6875000   0.1875000  )
        12           Si  tau(  12) = (   0.9375000   0.6875000   0.1875000  )
        13           Si  tau(  13) = (   0.4375000   0.1875000   0.6875000  )
        14           Si  tau(  14) = (   0.9375000   0.1875000   0.6875000  )
        15           Si  tau(  15) = (   0.4375000   0.6875000   0.6875000  )
        16           Si  tau(  16) = (   0.9375000   0.6875000   0.6875000  )
        17           Si  tau(  17) = (   0.1875000   0.4375000   0.1875000  )
        18           Si  tau(  18) = (   0.6875000   0.4375000   0.1875000  )
        19           Si  tau(  19) = (   0.1875000   0.9375000   0.1875000  )
        20           Si  tau(  20) = (   0.6875000   0.9375000   0.1875000  )
        21           Si  tau(  21) = (   0.1875000   0.4375000   0.6875000  )
        22           Si  tau(  22) = (   0.6875000   0.4375000   0.6875000  )
        23           Si  tau(  23) = (   0.1875000   0.9375000   0.6875000  )
        24           Si  tau(  24) = (   0.6875000   0.9375000   0.6875000  )
        25           Si  tau(  25) = (   0.1875000   0.1875000   0.4375000  )
        26           Si  tau(  26) = (   0.6875000   0.1875000   0.4375000  )
        27           Si  tau(  27) = (   0.1875000   0.6875000   0.4375000  )
        28           Si  tau(  28) = (   0.6875000   0.6875000   0.4375000  )
        29           Si  tau(  29) = (   0.1875000   0.1875000   0.9375000  )
        30           Si  tau(  30) = (   0.6875000   0.1875000   0.9375000  )
        31           Si  tau(  31) = (   0.1875000   0.6875000   0.9375000  )
        32           Si  tau(  32) = (   0.6875000   0.6875000   0.9375000  )
        33           Si  tau(  33) = (   0.0625000   0.0625000   0.0625000  )
        34           Si  tau(  34) = (   0.5625000   0.0625000   0.0625000  )
        35           Si  tau(  35) = (   0.0625000   0.5625000   0.0625000  )
        36           Si  tau(  36) = (   0.5625000   0.5625000   0.0625000  )
        37           Si  tau(  37) = (   0.0625000   0.0625000   0.5625000  )
        38           Si  tau(  38) = (   0.5625000   0.0625000   0.5625000  )
        39           Si  tau(  39) = (   0.0625000   0.5625000   0.5625000  )
        40           Si  tau(  40) = (   0.5625000   0.5595957   0.5625000  )
        41           Si  tau(  41) = (   0.0625000   0.3125000   0.3125000  )
        42           Si  tau(  42) = (   0.5625000   0.3125000   0.3125000  )
        43           Si  tau(  43) = (   0.0625000   0.8125000   0.3125000  )
        44           Si  tau(  44) = (   0.5625000   0.8125000   0.3125000  )
        45           Si  tau(  45) = (   0.0625000   0.3125000   0.8125000  )
        46           Si  tau(  46) = (   0.5625000   0.3125000   0.8125000  )
        47           Si  tau(  47) = (   0.0625000   0.8125000   0.8125000  )
        48           Si  tau(  48) = (   0.5625000   0.8125000   0.8125000  )
        49           Si  tau(  49) = (   0.3125000   0.0625000   0.3125000  )
        50           Si  tau(  50) = (   0.8125000   0.0625000   0.3125000  )
        51           Si  tau(  51) = (   0.3125000   0.5625000   0.3125000  )
        52           Si  tau(  52) = (   0.8125000   0.5625000   0.3125000  )
        53           Si  tau(  53) = (   0.3125000   0.0625000   0.8125000  )
        54           Si  tau(  54) = (   0.8125000   0.0625000   0.8125000  )
        55           Si  tau(  55) = (   0.3125000   0.5625000   0.8125000  )
        56           Si  tau(  56) = (   0.8125000   0.5625000   0.8125000  )
        57           Si  tau(  57) = (   0.3125000   0.3125000   0.0625000  )
        58           Si  tau(  58) = (   0.8125000   0.3125000   0.0625000  )
        59           Si  tau(  59) = (   0.3125000   0.8125000   0.0625000  )
        60           Si  tau(  60) = (   0.8125000   0.8125000   0.0625000  )
        61           Si  tau(  61) = (   0.3125000   0.3125000   0.5625000  )
        62           Si  tau(  62) = (   0.8125000   0.3125000   0.5625000  )
        63           Si  tau(  63) = (   0.3125000   0.8125000   0.5625000  )
        64           Si  tau(  64) = (   0.8125000   0.8125000   0.5625000  )

     number of k points=     3  gaussian smearing, width (Ry)=  0.0100
                       cart. coord. in units 2pi/alat
        k(    1) = (   0.2500000   0.2500000   0.2500000), wk =   0.5000000
        k(    2) = (  -0.2500000   0.2500000  -0.2500000), wk =   1.0000000
        k(    3) = (   0.2500000   0.2500000  -0.2500000), wk =   0.5000000

     Dense  grid:   421349 G-vectors     FFT dimensions: (  96,  96,  96)

     Largest allocated arrays     est. size (Mb)     dimensions
        Kohn-Sham Wavefunctions         7.72 Mb     (    3285,  154)
        NL pseudopotentials            25.66 Mb     (    3285,  512)
        Each V/rho on FFT grid          0.84 Mb     (   55296)
        Each G-vector array             0.20 Mb     (   26336)
        G-vector shells                 0.01 Mb     (    1719)
     Largest temporary arrays     est. size (Mb)     dimensions
        Auxiliary wavefunctions        30.88 Mb     (    3285,  616)
        Each subspace H/S matrix        1.45 Mb     (     308,  308)
        Each <psi_i|beta_j> matrix      1.20 Mb     (     512,  154)
        Arrays for rho mixing           6.75 Mb     (   55296,    8)

     Check: negative/imaginary core charge=   -0.000001    0.000000

     Initial potential from superposition of free atoms

     starting charge  255.96421, renormalised to  256.00000
     Starting wfc are  256 randomized atomic wfcs
     Checking if some PAW data can be deallocated... 

     total cpu time spent up to now is       29.4 secs

     per-process dynamical memory:   116.5 Mb

     Self-consistent Calculation

     iteration #  1     ecut=    50.00 Ry     beta=0.70
     Davidson diagonalization with overlap
     ethr =  1.00E-02,  avg # of iterations =  3.0

     Threshold (ethr) on eigenvalues was too large:
     Diagonalizing with lowered threshold

     Davidson diagonalization with overlap
     ethr =  7.00E-04,  avg # of iterations =  1.0

     total cpu time spent up to now is       58.6 secs

     total energy              =   -2990.45676325 Ry
     Harris-Foulkes estimate   =   -2990.87615328 Ry
     estimated scf accuracy    <       1.77323209 Ry

     iteration #  2     ecut=    50.00 Ry     beta=0.70
     Davidson diagonalization with overlap
     ethr =  6.93E-04,  avg # of iterations =  1.0

     total cpu time spent up to now is       69.8 secs

     total energy              =   -2990.52343285 Ry
     Harris-Foulkes estimate   =   -2990.52728481 Ry
     estimated scf accuracy    <       0.07632900 Ry

     iteration #  3     ecut=    50.00 Ry     beta=0.70
     Davidson diagonalization with overlap
     ethr =  2.98E-05,  avg # of iterations = 10.3

     total cpu time spent up to now is       95.6 secs

     total energy              =   -2990.53042293 Ry
     Harris-Foulkes estimate   =   -2990.53120801 Ry
     estimated scf accuracy    <       0.00196325 Ry

     iteration #  4     ecut=    50.00 Ry     beta=0.70
     Davidson diagonalization with overlap
     ethr =  7.67E-07,  avg # of iterations =  7.0

     total cpu time spent up to now is      129.0 secs

     total energy              =   -2990.53040785 Ry
     Harris-Foulkes estimate   =   -2990.53237691 Ry
     estimated scf accuracy    <       0.00572660 Ry

     iteration #  5     ecut=    50.00 Ry     beta=0.70
     Davidson diagonalization with overlap
     ethr =  7.67E-07,  avg # of iterations =  3.7

     total cpu time spent up to now is      147.6 secs

     total energy              =   -2990.53131214 Ry
     Harris-Foulkes estimate   =   -2990.53142972 Ry
     estimated scf accuracy    <       0.00034288 Ry

     iteration #  6     ecut=    50.00 Ry     beta=0.70
     Davidson diagonalization with overlap
     ethr =  1.34E-07,  avg # of iterations =  2.7

     total cpu time spent up to now is      161.8 secs

     total energy              =   -2990.53137285 Ry
     Harris-Foulkes estimate   =   -2990.53139076 Ry
     estimated scf accuracy    <       0.00005466 Ry

     iteration #  7     ecut=    50.00 Ry     beta=0.70
     Davidson diagonalization with overlap
     ethr =  2.14E-08,  avg # of iterations =  2.0

     total cpu time spent up to now is      175.8 secs

     total energy              =   -2990.53138197 Ry
     Harris-Foulkes estimate   =   -2990.53138384 Ry
     estimated scf accuracy    <       0.00000439 Ry

     iteration #  8     ecut=    50.00 Ry     beta=0.70
     Davidson diagonalization with overlap
     ethr =  1.71E-09,  avg # of iterations =  3.0

     total cpu time spent up to now is      192.9 secs

     total energy              =   -2990.53138321 Ry
     Harris-Foulkes estimate   =   -2990.53138341 Ry
     estimated scf accuracy    <       0.00000042 Ry

     iteration #  9     ecut=    50.00 Ry     beta=0.70
     Davidson diagonalization with overlap
     ethr =  1.64E-10,  avg # of iterations =  3.0

     total cpu time spent up to now is      212.7 secs

     total energy              =   -2990.53138323 Ry
     Harris-Foulkes estimate   =   -2990.53138333 Ry
     estimated scf accuracy    <       0.00000016 Ry

     iteration # 10     ecut=    50.00 Ry     beta=0.70
     Davidson diagonalization with overlap
     ethr =  6.29E-11,  avg # of iterations =  3.0

     total cpu time spent up to now is      227.2 secs

     total energy              =   -2990.53138322 Ry
     Harris-Foulkes estimate   =   -2990.53138327 Ry
     estimated scf accuracy    <       0.00000007 Ry

     iteration # 11     ecut=    50.00 Ry     beta=0.70
     Davidson diagonalization with overlap
     ethr =  2.62E-11,  avg # of iterations =  2.0

     total cpu time spent up to now is      241.0 secs

     total energy              =   -2990.53138323 Ry
     Harris-Foulkes estimate   =   -2990.53138323 Ry
     estimated scf accuracy    <          2.2E-09 Ry

     iteration # 12     ecut=    50.00 Ry     beta=0.70
     Davidson diagonalization with overlap
     ethr =  8.75E-13,  avg # of iterations =  3.0

     total cpu time spent up to now is      260.9 secs

     total energy              =   -2990.53138323 Ry
     Harris-Foulkes estimate   =   -2990.53138323 Ry
     estimated scf accuracy    <          1.8E-09 Ry

     iteration # 13     ecut=    50.00 Ry     beta=0.70
     Davidson diagonalization with overlap
     ethr =  7.20E-13,  avg # of iterations =  2.0

     total cpu time spent up to now is      275.2 secs

     End of self-consistent calculation

          k = 0.2500 0.2500 0.2500 ( 52563 PWs)   bands (ev):

    -5.6250  -5.1013  -5.0952  -5.0930  -4.6013  -4.5956  -4.5934  -4.1622
    -4.0677  -4.0621  -4.0593  -3.6607  -3.6479  -3.6461  -3.6457  -3.6442
    -3.6411  -3.4601  -3.4543  -3.4521  -2.9611  -2.9572  -2.9520  -2.5957
    -2.5876  -2.5859  -2.4321  -2.4219  -2.4198  -2.4193  -2.4177  -2.4158
    -0.8866  -0.8803  -0.8771  -0.8758  -0.8756  -0.8720  -0.7854  -0.7777
    -0.7756  -0.6639  -0.6617  -0.6556  -0.5903  -0.5760  -0.5746   0.1226
     0.2035   0.2093   0.2115   0.2134   0.2149   0.2211   1.0754   1.0855
     1.0879   1.4148   1.4188   1.4215   2.0249   2.0266   2.0289   2.0294
     2.0319   2.0337   2.0866   2.0891   2.0924   2.6348   2.6395   2.6402
     2.7395   2.7404   2.7433   2.7445   2.7491   2.7498   2.7949   2.8001
     2.8015   3.1004   3.1068   3.1069   3.1081   3.1093   3.1128   3.3713
     3.3724   3.3744   3.3847   3.3880   3.3902   3.7267   3.7342   3.7355
     3.7489   3.7554   3.7567   3.8391   3.8398   3.8432   4.0996   4.1109
     4.1114   4.1151   4.1155   4.1166   4.1533   4.1538   4.1580   4.4092
     4.4714   4.4723   4.4760   4.7148   4.7150   4.7196   4.7664   4.7777
     4.7784   4.9350   4.9399   5.2439   5.2444   5.2507   5.7235   5.7293
     6.9347   6.9389   6.9402   7.3742   7.3770   7.3813   7.6002   7.8605
     7.8630   7.8669   7.9868   7.9887   7.9949   8.1494   8.1500   8.1552
     8.1682   8.1692   8.1728   8.3926   8.3951   8.4025   8.4028   8.4035
     8.4062   8.4509

          k =-0.2500 0.2500-0.2500 ( 52563 PWs)   bands (ev):

    -5.6251  -5.0999  -5.0956  -5.0937  -4.6002  -4.5960  -4.5942  -4.1632
    -4.0671  -4.0624  -4.0607  -3.6572  -3.6486  -3.6469  -3.6468  -3.6445
    -3.6387  -3.4593  -3.4548  -3.4502  -2.9632  -2.9569  -2.9557  -2.5945
    -2.5892  -2.5843  -2.4302  -2.4227  -2.4212  -2.4207  -2.4178  -2.4120
    -0.8902  -0.8808  -0.8782  -0.8778  -0.8745  -0.8692  -0.7857  -0.7805
    -0.7748  -0.6674  -0.6624  -0.6566  -0.5814  -0.5753  -0.5714   0.1262
     0.1995   0.2077   0.2108   0.2114   0.2149   0.2204   1.0800   1.0860
     1.0900   1.4139   1.4187   1.4225   2.0239   2.0262   2.0290   2.0305
     2.0313   2.0336   2.0853   2.0885   2.0911   2.6371   2.6400   2.6431
     2.7366   2.7389   2.7429   2.7450   2.7468   2.7481   2.7923   2.7969
     2.8007   3.1005   3.1058   3.1080   3.1083   3.1101   3.1126   3.3683
     3.3724   3.3740   3.3823   3.3865   3.3901   3.7316   3.7344   3.7374
     3.7526   3.7568   3.7605   3.8359   3.8401   3.8426   4.1057   4.1128
     4.1141   4.1154   4.1165   4.1204   4.1498   4.1543   4.1575   4.4129
     4.4674   4.4716   4.4740   4.7103   4.7149   4.7181   4.7744   4.7790
     4.7833   4.9319   4.9406   5.2382   5.2440   5.2486   5.7191   5.7289
     6.9323   6.9367   6.9396   7.3708   7.3770   7.3822   7.5987   7.8567
     7.8619   7.8668   7.9869   7.9918   7.9963   8.1470   8.1513   8.1551
     8.1656   8.1700   8.1722   8.3937   8.4003   8.4029   8.4031   8.4051
     8.4087   8.4484

          k = 0.2500 0.2500-0.2500 ( 52563 PWs)   bands (ev):

    -5.6251  -5.0999  -5.0958  -5.0931  -4.6004  -4.5963  -4.5938  -4.1644
    -4.0676  -4.0632  -4.0603  -3.6532  -3.6502  -3.6474  -3.6468  -3.6429
    -3.6391  -3.4576  -3.4555  -3.4493  -2.9657  -2.9593  -2.9565  -2.5925
    -2.5909  -2.5834  -2.4260  -2.4248  -2.4211  -2.4207  -2.4186  -2.4117
    -0.8873  -0.8837  -0.8785  -0.8781  -0.8766  -0.8692  -0.7856  -0.7830
    -0.7749  -0.6680  -0.6632  -0.6606  -0.5766  -0.5753  -0.5634   0.1300
     0.2004   0.2035   0.2106   0.2110   0.2119   0.2182   1.0829   1.0858
     1.0947   1.4151   1.4179   1.4219   2.0231   2.0269   2.0287   2.0292
     2.0318   2.0344   2.0842   2.0864   2.0905   2.6397   2.6414   2.6449
     2.7340   2.7386   2.7420   2.7438   2.7450   2.7472   2.7908   2.7931
     2.7988   3.1013   3.1061   3.1076   3.1082   3.1105   3.1128   3.3671
     3.3713   3.3729   3.3824   3.3851   3.3877   3.7339   3.7376   3.7381
     3.7565   3.7588   3.7637   3.8351   3.8393   3.8406   4.1127   4.1134
     4.1144   4.1153   4.1207   4.1250   4.1485   4.1534   4.1553   4.4170
     4.4646   4.4699   4.4716   4.7089   4.7140   4.7147   4.7792   4.7808
     4.7914   4.9324   4.9375   5.2357   5.2427   5.2439   5.7188   5.7243
     6.9310   6.9343   6.9382   7.3694   7.3781   7.3804   7.5971   7.8546
     7.8614   7.8643   7.9882   7.9946   7.9965   8.1444   8.1532   8.1540
     8.1650   8.1697   8.1717   8.3984   8.4012   8.4025   8.4055   8.4072
     8.4100   8.4461

     the Fermi energy is     6.3279 ev

!    total energy              =   -2990.53138323 Ry
     Harris-Foulkes estimate   =   -2990.53138323 Ry
     estimated scf accuracy    <          5.1E-10 Ry

     total all-electron energy =    -37124.666936 Ry

     The total energy is the sum of the following terms:

     one-electron contribution =     178.60487718 Ry
     hartree contribution      =      35.70223034 Ry
     xc contribution           =    -391.44218639 Ry
     ewald contribution        =    -534.00493264 Ry
     one-center paw contrib.   =   -2279.39137172 Ry
     smearing contrib. (-TS)   =       0.00000000 Ry

     convergence has been achieved in  13 iterations

     Forces acting on atoms (Ry/au):

     atom    1 type  1   force =    -0.01882833   -0.00416431   -0.00303931
     atom    2 type  1   force =    -0.00001643    0.00006074   -0.00004982
     atom    3 type  1   force =     0.00001689    0.00001252   -0.00003853
     atom    4 type  1   force =    -0.00003211   -0.00002658   -0.00002786
     atom    5 type  1   force =     0.00000459    0.00006049   -0.00003796
     atom    6 type  1   force =    -0.00003534   -0.00025512   -0.00002838
     atom    7 type  1   force =    -0.00050153   -0.00002629   -0.00002368
     atom    8 type  1   force =    -0.00000685    0.00002058   -0.00003113
     atom    9 type  1   force =    -0.00049876    0.00008749    0.00008804
     atom   10 type  1   force =     0.00003082    0.00003116   -0.00002146
     atom   11 type  1   force =    -0.00047073    0.00016682   -0.00014677
     atom   12 type  1   force =     0.00002907   -0.00024318   -0.00003781
     atom   13 type  1   force =    -0.00048570   -0.00009694    0.00007186
     atom   14 type  1   force =     0.00002752   -0.00003704   -0.00001937
     atom   15 type  1   force =     0.00195435   -0.00392100   -0.00259956
     atom   16 type  1   force =     0.00003652    0.00004843   -0.00005974
     atom   17 type  1   force =     0.00026064   -0.00036709    0.00025342
     atom   18 type  1   force =     0.00028730   -0.00005349   -0.00019406
     atom   19 type  1   force =     0.00007452    0.00001198   -0.00004629
     atom   20 type  1   force =     0.00006845   -0.00003585    0.00010093
     atom   21 type  1   force =     0.00027014    0.00017060   -0.00017753
     atom   22 type  1   force =     0.00294388   -0.00381147    0.00293160
     atom   23 type  1   force =     0.00006852   -0.00001760    0.00010518
     atom   24 type  1   force =     0.00008042    0.00002117   -0.00003773
     atom   25 type  1   force =     0.00020640    0.00019984   -0.00008363
     atom   26 type  1   force =     0.00019949   -0.00021970   -0.00007735
     atom   27 type  1   force =     0.00019544   -0.00017035    0.00016177
     atom   28 type  1   force =    -0.00224360   -0.00357791    0.00259096
     atom   29 type  1   force =     0.00001281   -0.00005517    0.00002205
     atom   30 type  1   force =     0.00001348    0.00004856    0.00001740
     atom   31 type  1   force =     0.00001567   -0.00017499    0.00003668
     atom   32 type  1   force =    -0.00000844   -0.00001721    0.00004675
     atom   33 type  1   force =    -0.00002058    0.00000685    0.00003113
     atom   34 type  1   force =     0.00025512    0.00003534    0.00002838
     atom   35 type  1   force =     0.00002629    0.00050153    0.00002368
     atom   36 type  1   force =    -0.00006049   -0.00000459    0.00003796
     atom   37 type  1   force =     0.00002658    0.00003211    0.00002786
     atom   38 type  1   force =    -0.00006074    0.00001643    0.00004982
     atom   39 type  1   force =    -0.00001252   -0.00001689    0.00003853
     atom   40 type  1   force =     0.00416431    0.01882833    0.00303931
     atom   41 type  1   force =    -0.00002117   -0.00008042    0.00003773
     atom   42 type  1   force =     0.00381147   -0.00294388   -0.00293160
     atom   43 type  1   force =     0.00001760   -0.00006852   -0.00010518
     atom   44 type  1   force =    -0.00017060   -0.00027014    0.00017753
     atom   45 type  1   force =     0.00003585   -0.00006845   -0.00010093
     atom   46 type  1   force =     0.00005349   -0.00028730    0.00019406
     atom   47 type  1   force =    -0.00001198   -0.00007452    0.00004629
     atom   48 type  1   force =     0.00036709   -0.00026064   -0.00025342
     atom   49 type  1   force =    -0.00004843   -0.00003652    0.00005974
     atom   50 type  1   force =     0.00003704   -0.00002752    0.00001937
     atom   51 type  1   force =     0.00392100   -0.00195435    0.00259956
     atom   52 type  1   force =     0.00009694    0.00048570   -0.00007186
     atom   53 type  1   force =     0.00024318   -0.00002907    0.00003781
     atom   54 type  1   force =    -0.00003116   -0.00003082    0.00002146
     atom   55 type  1   force =    -0.00016682    0.00047073    0.00014677
     atom   56 type  1   force =    -0.00008749    0.00049876   -0.00008804
     atom   57 type  1   force =     0.00001721    0.00000844   -0.00004675
     atom   58 type  1   force =    -0.00004856   -0.00001348   -0.00001740
     atom   59 type  1   force =     0.00017499   -0.00001567   -0.00003668
     atom   60 type  1   force =     0.00005517   -0.00001281   -0.00002205
     atom   61 type  1   force =     0.00357791    0.00224360   -0.00259096
     atom   62 type  1   force =     0.00021970   -0.00019949    0.00007735
     atom   63 type  1   force =     0.00017035   -0.00019544   -0.00016177
     atom   64 type  1   force =    -0.00019984   -0.00020640    0.00008363

     Total force =     0.030511     Total SCF correction =     0.000045

     Writing output data file pwscf.save
 
     init_run     :     17.65s CPU     29.12s WALL (       1 calls)
     electrons    :    235.17s CPU    246.29s WALL (       1 calls)
     forces       :      3.87s CPU      4.03s WALL (       1 calls)

     Called by init_run:
     wfcinit      :     16.94s CPU     26.66s WALL (       1 calls)
     potinit      :      0.26s CPU      0.27s WALL (       1 calls)

     Called by electrons:
     c_bands      :    208.14s CPU    218.33s WALL (      14 calls)
     sum_band     :     21.45s CPU     21.83s WALL (      14 calls)
     v_of_rho     :      0.96s CPU      0.99s WALL (      14 calls)
     newd         :      1.82s CPU      1.89s WALL (      14 calls)
     PAW_pot      :      2.36s CPU      2.37s WALL (      14 calls)
     mix_rho      :      0.59s CPU      0.60s WALL (      14 calls)

     Called by c_bands:
     init_us_2    :      3.96s CPU      4.02s WALL (      90 calls)
     cegterg      :    200.44s CPU    206.34s WALL (      42 calls)

     Called by sum_band:
     sum_band:bec :      0.04s CPU      0.04s WALL (      42 calls)
     addusdens    :      1.86s CPU      2.12s WALL (      14 calls)

     Called by *egterg:
     h_psi        :    103.98s CPU    104.50s WALL (     185 calls)
     s_psi        :     23.57s CPU     23.62s WALL (     185 calls)
     g_psi        :      0.89s CPU      0.90s WALL (     140 calls)
     cdiaghg      :     27.13s CPU     27.20s WALL (     179 calls)

     Called by h_psi:
     add_vuspsi   :     24.32s CPU     24.39s WALL (     185 calls)

     General routines
     calbec       :     37.37s CPU     37.60s WALL (     239 calls)
     fft          :      0.45s CPU      0.45s WALL (     195 calls)
     fftw         :     54.17s CPU     54.57s WALL (   42528 calls)
     davcio       :      0.00s CPU      0.01s WALL (       3 calls)
 
     Parallel routines
     fft_scatter  :     22.21s CPU     21.84s WALL (   42723 calls)
 
     PWSCF        :  4m16.98s CPU     5m 2.26s WALL

 
   This run was terminated on:  13:51:15   3Feb2016            

=------------------------------------------------------------------------------=
   JOB DONE.
=------------------------------------------------------------------------------=
