<?xml version="1.0" encoding="ISO-8859-1"?>
<modeling>
 <generator>
  <i name="program" type="string">vasp </i>
  <i name="version" type="string">5.4.1  </i>
  <i name="subversion" type="string">05Feb16 (build Mar 26 2016 11:58:25) complex                          parallel </i>
  <i name="platform" type="string">IFC91_ompi </i>
  <i name="date" type="string">2017 03 12 </i>
  <i name="time" type="string">12:13:57 </i>
 </generator>
 <incar>
  <i type="string" name="PREC">accurate</i>
  <i type="int" name="IALGO">    38</i>
  <i type="logical" name="ADDGRID"> T  </i>
  <i type="int" name="NELMIN">     5</i>
  <i type="int" name="IBRION">    -1</i>
  <i name="EDIFF">      0.00000001</i>
  <i name="ENCUT">    300.00000000</i>
  <i type="logical" name="LREAL"> F  </i>
  <i type="int" name="ISMEAR">     0</i>
  <i name="SIGMA">      0.05000000</i>
  <i type="logical" name="LWAVE"> F  </i>
  <i type="logical" name="LCHARG"> F  </i>
  <v type="int" name="KPOINT_BSE">    -1     0     0     0</v>
 </incar>
 <kpoints>
  <generation param="Monkhorst-Pack">
   <v type="int" name="divisions">       2        2        2 </v>
   <v name="usershift">      0.00000000       0.00000000       0.00000000 </v>
   <v name="genvec1">      0.50000000       0.00000000       0.00000000 </v>
   <v name="genvec2">      0.00000000       0.50000000       0.00000000 </v>
   <v name="genvec3">      0.00000000       0.00000000       0.50000000 </v>
   <v name="shift">      0.50000000       0.50000000       0.50000000 </v>
  </generation>
  <varray name="kpointlist" >
   <v>       0.25000000       0.25000000       0.25000000 </v>
   <v>      -0.25000000       0.25000000       0.25000000 </v>
   <v>       0.25000000      -0.25000000       0.25000000 </v>
   <v>      -0.25000000      -0.25000000       0.25000000 </v>
  </varray>
  <varray name="weights" >
   <v>       0.25000000 </v>
   <v>       0.25000000 </v>
   <v>       0.25000000 </v>
   <v>       0.25000000 </v>
  </varray>
 </kpoints>
 <parameters>
  <separator name="general" >
   <i type="string" name="SYSTEM">unknown system</i>
   <i type="logical" name="LCOMPAT"> F  </i>
  </separator>
  <separator name="electronic" >
   <i type="string" name="PREC">accura</i>
   <i name="ENMAX">    300.00000000</i>
   <i name="ENAUG">    322.06900000</i>
   <i name="EDIFF">      0.00000001</i>
   <i type="int" name="IALGO">    38</i>
   <i type="int" name="IWAVPR">    10</i>
   <i type="int" name="NBANDS">   164</i>
   <i name="NELECT">    256.00000000</i>
   <i type="int" name="TURBO">     0</i>
   <i type="int" name="IRESTART">     0</i>
   <i type="int" name="NREBOOT">     0</i>
   <i type="int" name="NMIN">     0</i>
   <i name="EREF">      0.00000000</i>
   <separator name="electronic smearing" >
    <i type="int" name="ISMEAR">     0</i>
    <i name="SIGMA">      0.05000000</i>
    <i name="KSPACING">      0.50000000</i>
    <i type="logical" name="KGAMMA"> T  </i>
   </separator>
   <separator name="electronic projectors" >
    <i type="logical" name="LREAL"> F  </i>
    <v name="ROPT">      0.00000000</v>
    <i type="int" name="LMAXPAW">  -100</i>
    <i type="int" name="LMAXMIX">     2</i>
    <i type="logical" name="NLSPLINE"> F  </i>
   </separator>
   <separator name="electronic startup" >
    <i type="int" name="ISTART">     0</i>
    <i type="int" name="ICHARG">     2</i>
    <i type="int" name="INIWAV">     1</i>
   </separator>
   <separator name="electronic spin" >
    <i type="int" name="ISPIN">     1</i>
    <i type="logical" name="LNONCOLLINEAR"> F  </i>
    <v name="MAGMOM">      1.00000000      1.00000000      1.00000000      1.00000000      1.00000000      1.00000000      1.00000000      1.00000000      1.00000000      1.00000000      1.00000000      1.00000000      1.00000000      1.00000000      1.00000000      1.00000000      1.00000000      1.00000000      1.00000000      1.00000000
      1.00000000      1.00000000      1.00000000      1.00000000      1.00000000      1.00000000      1.00000000      1.00000000      1.00000000      1.00000000      1.00000000      1.00000000      1.00000000      1.00000000      1.00000000      1.00000000      1.00000000      1.00000000      1.00000000      1.00000000
      1.00000000      1.00000000      1.00000000      1.00000000      1.00000000      1.00000000      1.00000000      1.00000000      1.00000000      1.00000000      1.00000000      1.00000000      1.00000000      1.00000000      1.00000000      1.00000000      1.00000000      1.00000000      1.00000000      1.00000000
      1.00000000      1.00000000      1.00000000      1.00000000</v>
    <i name="NUPDOWN">     -1.00000000</i>
    <i type="logical" name="LSORBIT"> F  </i>
    <v name="SAXIS">      0.00000000      0.00000000      1.00000000</v>
    <i type="logical" name="LSPIRAL"> F  </i>
    <v name="QSPIRAL">      0.00000000      0.00000000      0.00000000</v>
    <i type="logical" name="LZEROZ"> F  </i>
   </separator>
   <separator name="electronic exchange-correlation" >
    <i type="logical" name="LASPH"> F  </i>
    <i type="logical" name="LMETAGGA"> F  </i>
   </separator>
   <separator name="electronic convergence" >
    <i type="int" name="NELM">    60</i>
    <i type="int" name="NELMDL">    -5</i>
    <i type="int" name="NELMIN">     5</i>
    <i name="ENINI">    300.00000000</i>
    <separator name="electronic convergence detail" >
     <i type="logical" name="LDIAG"> T  </i>
     <i type="logical" name="LSUBROT"> F  </i>
     <i name="WEIMIN">      0.00000000</i>
     <i name="EBREAK">      0.00000000</i>
     <i name="DEPER">      0.30000000</i>
     <i type="int" name="NRMM">     4</i>
     <i name="TIME">      0.40000000</i>
    </separator>
   </separator>
   <separator name="electronic mixer" >
    <i name="AMIX">      0.40000000</i>
    <i name="BMIX">      1.00000000</i>
    <i name="AMIN">      0.10000000</i>
    <i name="AMIX_MAG">      1.60000000</i>
    <i name="BMIX_MAG">      1.00000000</i>
    <separator name="electronic mixer details" >
     <i type="int" name="IMIX">     4</i>
     <i type="logical" name="MIXFIRST"> F  </i>
     <i type="int" name="MAXMIX">   -45</i>
     <i name="WC">    100.00000000</i>
     <i type="int" name="INIMIX">     1</i>
     <i type="int" name="MIXPRE">     1</i>
     <i type="int" name="MREMOVE">     5</i>
    </separator>
   </separator>
   <separator name="electronic dipolcorrection" >
    <i type="logical" name="LDIPOL"> F  </i>
    <i type="logical" name="LMONO"> F  </i>
    <i type="int" name="IDIPOL">     0</i>
    <i name="EPSILON">      1.00000000</i>
    <v name="DIPOL">   -100.00000000   -100.00000000   -100.00000000</v>
    <i name="EFIELD">      0.00000000</i>
   </separator>
  </separator>
  <separator name="grids" >
   <i type="int" name="NGX">    64</i>
   <i type="int" name="NGY">    64</i>
   <i type="int" name="NGZ">    64</i>
   <i type="int" name="NGXF">   128</i>
   <i type="int" name="NGYF">   128</i>
   <i type="int" name="NGZF">   128</i>
   <i type="logical" name="ADDGRID"> T  </i>
  </separator>
  <separator name="ionic" >
   <i type="int" name="NSW">     0</i>
   <i type="int" name="IBRION">    -1</i>
   <i type="int" name="ISIF">     2</i>
   <i name="PSTRESS">      0.00000000</i>
   <i name="EDIFFG">      0.00000010</i>
   <i type="int" name="NFREE">     0</i>
   <i name="POTIM">      0.50000000</i>
   <i name="SMASS">     -3.00000000</i>
   <i name="SCALEE">      1.00000000</i>
  </separator>
  <separator name="ionic md" >
   <i name="TEBEG">      0.00010000</i>
   <i name="TEEND">      0.00010000</i>
   <i type="int" name="NBLOCK">     1</i>
   <i type="int" name="KBLOCK">     1</i>
   <i type="int" name="NPACO">   256</i>
   <i name="APACO">     16.00000000</i>
  </separator>
  <separator name="symmetry" >
   <i type="int" name="ISYM">     2</i>
   <i name="SYMPREC">      0.00001000</i>
  </separator>
  <separator name="dos" >
   <i type="logical" name="LORBIT"> F  </i>
   <v name="RWIGS">     -1.00000000</v>
   <i type="int" name="NEDOS">   301</i>
   <i name="EMIN">     10.00000000</i>
   <i name="EMAX">    -10.00000000</i>
   <i name="EFERMI">      0.00000000</i>
  </separator>
  <separator name="writing" >
   <i type="int" name="NWRITE">     2</i>
   <i type="logical" name="LWAVE"> F  </i>
   <i type="logical" name="LCHARG"> F  </i>
   <i type="logical" name="LPARD"> F  </i>
   <i type="logical" name="LVTOT"> F  </i>
   <i type="logical" name="LVHAR"> F  </i>
   <i type="logical" name="LELF"> F  </i>
   <i type="logical" name="LOPTICS"> F  </i>
   <v name="STM">      0.00000000      0.00000000      0.00000000      0.00000000      0.00000000      0.00000000      0.00000000</v>
  </separator>
  <separator name="performance" >
   <i type="int" name="NPAR">     4</i>
   <i type="int" name="NSIM">     4</i>
   <i type="int" name="NBLK">    -1</i>
   <i type="logical" name="LPLANE"> T  </i>
   <i type="logical" name="LSCALAPACK"> T  </i>
   <i type="logical" name="LSCAAWARE"> F  </i>
   <i type="logical" name="LSCALU"> F  </i>
   <i type="logical" name="LASYNC"> F  </i>
   <i type="logical" name="LORBITALREAL"> F  </i>
  </separator>
  <separator name="miscellaneous" >
   <i type="int" name="IDIOT">     3</i>
   <i type="logical" name="LMUSIC"> F  </i>
   <v name="POMASS">     28.08500000</v>
   <v name="DARWINR">      0.00000000</v>
   <v name="DARWINV">      1.00000000</v>
   <i type="logical" name="LCORR"> T  </i>
  </separator>
  <i type="logical" name="GGA_COMPAT"> T  </i>
  <i type="logical" name="LBERRY"> F  </i>
  <i type="int" name="ICORELEVEL">     0</i>
  <i type="logical" name="LDAU"> F  </i>
  <i type="int" name="I_CONSTRAINED_M">     0</i>
  <separator name="electronic exchange-correlation" >
   <i type="string" name="GGA">--</i>
   <i type="int" name="VOSKOWN">     0</i>
   <i type="logical" name="LHFCALC"> F  </i>
   <i type="string" name="PRECFOCK"></i>
   <i type="logical" name="LSYMGRAD"> F  </i>
   <i type="logical" name="LHFONE"> F  </i>
   <i type="logical" name="LRHFCALC"> F  </i>
   <i type="logical" name="LTHOMAS"> F  </i>
   <i type="logical" name="LMODELHF"> F  </i>
   <i name="ENCUT4O">     -1.00000000</i>
   <i type="int" name="EXXOEP">     0</i>
   <i type="int" name="FOURORBIT">     0</i>
   <i name="AEXX">      0.00000000</i>
   <i name="HFALPHA">      0.00000000</i>
   <i name="MCALPHA">      0.00000000</i>
   <i name="ALDAX">      1.00000000</i>
   <i name="AGGAX">      1.00000000</i>
   <i name="ALDAC">      1.00000000</i>
   <i name="AGGAC">      1.00000000</i>
   <i type="int" name="NKREDX">     1</i>
   <i type="int" name="NKREDY">     1</i>
   <i type="int" name="NKREDZ">     1</i>
   <i type="logical" name="SHIFTRED"> F  </i>
   <i type="logical" name="ODDONLY"> F  </i>
   <i type="logical" name="EVENONLY"> F  </i>
   <i type="int" name="LMAXFOCK">     0</i>
   <i type="int" name="NMAXFOCKAE">     0</i>
   <i type="logical" name="LFOCKAEDFT"> F  </i>
   <i name="HFSCREEN">      0.00000000</i>
   <i name="HFSCREENC">      0.00000000</i>
   <i type="int" name="NBANDSGWLOW">     0</i>
  </separator>
  <separator name="vdW DFT" >
   <i type="logical" name="LUSE_VDW"> F  </i>
   <i name="Zab_VDW">     -0.84910000</i>
   <i name="PARAM1">      0.12340000</i>
   <i name="PARAM2">      1.00000000</i>
   <i name="PARAM3">      0.00000000</i>
  </separator>
  <separator name="model GW" >
   <i type="int" name="MODEL_GW">     0</i>
   <i name="MODEL_EPS0">     12.24990743</i>
   <i name="MODEL_ALPHA">      1.00000000</i>
  </separator>
  <separator name="linear response parameters" >
   <i type="logical" name="LEPSILON"> F  </i>
   <i type="logical" name="LRPA"> F  </i>
   <i type="logical" name="LNABLA"> F  </i>
   <i type="logical" name="LVEL"> F  </i>
   <i type="int" name="KINTER">     0</i>
   <i name="CSHIFT">      0.10000000</i>
   <i name="OMEGAMAX">     -1.00000000</i>
   <i name="DEG_THRESHOLD">      0.00200000</i>
  </separator>
  <separator name="orbital magnetization" >
   <i type="logical" name="NUCIND"> F  </i>
   <v name="MAGPOS">      0.00000000      0.00000000      0.00000000</v>
   <i type="logical" name="LNICSALL"> T  </i>
   <i type="logical" name="ORBITALMAG"> F  </i>
   <i type="logical" name="LMAGBLOCH"> F  </i>
   <i type="logical" name="LCHIMAG"> F  </i>
   <i type="logical" name="LGAUGE"> T  </i>
   <i type="int" name="MAGATOM">     0</i>
   <v name="MAGDIPOL">      0.00000000      0.00000000      0.00000000</v>
   <v name="AVECCONST">      0.00000000      0.00000000      0.00000000</v>
  </separator>
  <separator name="response functions" >
   <i type="logical" name="LADDER"> F  </i>
   <i type="logical" name="LFXC"> F  </i>
   <i type="logical" name="LHARTREE"> T  </i>
   <i type="int" name="IBSE">     0</i>
   <v type="int" name="KPOINT">    -1     0     0     0</v>
   <i type="logical" name="LTCTE"> F  </i>
   <i type="logical" name="LTETE"> F  </i>
   <i type="logical" name="LTRIPLET"> F  </i>
   <i type="logical" name="LFXCEPS"> F  </i>
   <i type="logical" name="LFXHEG"> F  </i>
   <i type="int" name="NATURALO">     0</i>
   <i type="logical" name="L2ORDER"> F  </i>
   <i type="logical" name="LUSEW"> F  </i>
   <i name="ENCUTGW">     -2.00000000</i>
   <i name="ENCUTGWSOFT">     -2.00000000</i>
   <i name="ENCUTLF">     -1.00000000</i>
   <i type="int" name="LMAXMP2">    -1</i>
   <i name="SCISSOR">      0.00000000</i>
   <i type="int" name="NOMEGA">     0</i>
   <i type="int" name="NOMEGAR">     0</i>
   <i type="int" name="NBANDSGW">    -1</i>
   <i type="int" name="NBANDSO">    -1</i>
   <i type="int" name="NBANDSV">    -1</i>
   <i type="int" name="NELM">     1</i>
   <i type="int" name="NELMHF">     1</i>
   <i type="int" name="DIM">     3</i>
   <i type="int" name="ANTIRES">     0</i>
   <i name="OMEGAMAX">    -30.00000000</i>
   <i name="OMEGAMIN">    -30.00000000</i>
   <i name="OMEGATL">   -200.00000000</i>
   <i type="int" name="OMEGAGRID">     0</i>
   <i name="CSHIFT">     -0.10000000</i>
   <i type="logical" name="SELFENERGY"> F  </i>
   <i type="logical" name="LSPECTRAL"> F  </i>
   <i type="logical" name="LSPECTRALGW"> F  </i>
   <i type="logical" name="LSINGLES"> F  </i>
   <i type="logical" name="LFERMIGW"> F  </i>
   <i type="logical" name="ODDONLYGW"> F  </i>
   <i type="logical" name="EVENONLYGW"> F  </i>
   <i type="int" name="NKREDLFX">     1</i>
   <i type="int" name="NKREDLFY">     1</i>
   <i type="int" name="NKREDLFZ">     1</i>
   <i type="int" name="MAXMEM">  1800</i>
   <i type="int" name="TELESCOPE">     0</i>
   <i type="int" name="TAUPAR">     1</i>
   <i type="int" name="OMEGAPAR">    -1</i>
   <i name="LAMBDA">      1.00000000</i>
  </separator>
  <separator name="External order field" >
   <i name="OFIELD_KAPPA">      0.00000000</i>
   <v name="OFIELD_K">      0.00000000      0.00000000      0.00000000</v>
   <i name="OFIELD_Q6_NEAR">      0.00000000</i>
   <i name="OFIELD_Q6_FAR">      0.00000000</i>
   <i name="OFIELD_A">      0.00000000</i>
  </separator>
 </parameters>
 <atominfo>
  <atoms>      64 </atoms>
  <types>       1 </types>
  <array name="atoms" >
   <dimension dim="1">ion</dimension>
   <field type="string">element</field>
   <field type="int">atomtype</field>
   <set>
    <rc><c>Si</c><c>   1</c></rc>
    <rc><c>Si</c><c>   1</c></rc>
    <rc><c>Si</c><c>   1</c></rc>
    <rc><c>Si</c><c>   1</c></rc>
    <rc><c>Si</c><c>   1</c></rc>
    <rc><c>Si</c><c>   1</c></rc>
    <rc><c>Si</c><c>   1</c></rc>
    <rc><c>Si</c><c>   1</c></rc>
    <rc><c>Si</c><c>   1</c></rc>
    <rc><c>Si</c><c>   1</c></rc>
    <rc><c>Si</c><c>   1</c></rc>
    <rc><c>Si</c><c>   1</c></rc>
    <rc><c>Si</c><c>   1</c></rc>
    <rc><c>Si</c><c>   1</c></rc>
    <rc><c>Si</c><c>   1</c></rc>
    <rc><c>Si</c><c>   1</c></rc>
    <rc><c>Si</c><c>   1</c></rc>
    <rc><c>Si</c><c>   1</c></rc>
    <rc><c>Si</c><c>   1</c></rc>
    <rc><c>Si</c><c>   1</c></rc>
    <rc><c>Si</c><c>   1</c></rc>
    <rc><c>Si</c><c>   1</c></rc>
    <rc><c>Si</c><c>   1</c></rc>
    <rc><c>Si</c><c>   1</c></rc>
    <rc><c>Si</c><c>   1</c></rc>
    <rc><c>Si</c><c>   1</c></rc>
    <rc><c>Si</c><c>   1</c></rc>
    <rc><c>Si</c><c>   1</c></rc>
    <rc><c>Si</c><c>   1</c></rc>
    <rc><c>Si</c><c>   1</c></rc>
    <rc><c>Si</c><c>   1</c></rc>
    <rc><c>Si</c><c>   1</c></rc>
    <rc><c>Si</c><c>   1</c></rc>
    <rc><c>Si</c><c>   1</c></rc>
    <rc><c>Si</c><c>   1</c></rc>
    <rc><c>Si</c><c>   1</c></rc>
    <rc><c>Si</c><c>   1</c></rc>
    <rc><c>Si</c><c>   1</c></rc>
    <rc><c>Si</c><c>   1</c></rc>
    <rc><c>Si</c><c>   1</c></rc>
    <rc><c>Si</c><c>   1</c></rc>
    <rc><c>Si</c><c>   1</c></rc>
    <rc><c>Si</c><c>   1</c></rc>
    <rc><c>Si</c><c>   1</c></rc>
    <rc><c>Si</c><c>   1</c></rc>
    <rc><c>Si</c><c>   1</c></rc>
    <rc><c>Si</c><c>   1</c></rc>
    <rc><c>Si</c><c>   1</c></rc>
    <rc><c>Si</c><c>   1</c></rc>
    <rc><c>Si</c><c>   1</c></rc>
    <rc><c>Si</c><c>   1</c></rc>
    <rc><c>Si</c><c>   1</c></rc>
    <rc><c>Si</c><c>   1</c></rc>
    <rc><c>Si</c><c>   1</c></rc>
    <rc><c>Si</c><c>   1</c></rc>
    <rc><c>Si</c><c>   1</c></rc>
    <rc><c>Si</c><c>   1</c></rc>
    <rc><c>Si</c><c>   1</c></rc>
    <rc><c>Si</c><c>   1</c></rc>
    <rc><c>Si</c><c>   1</c></rc>
    <rc><c>Si</c><c>   1</c></rc>
    <rc><c>Si</c><c>   1</c></rc>
    <rc><c>Si</c><c>   1</c></rc>
    <rc><c>Si</c><c>   1</c></rc>
   </set>
  </array>
  <array name="atomtypes" >
   <dimension dim="1">type</dimension>
   <field type="int">atomspertype</field>
   <field type="string">element</field>
   <field>mass</field>
   <field>valence</field>
   <field type="string">pseudopotential</field>
   <set>
    <rc><c>  64</c><c>Si</c><c>     28.08500000</c><c>      4.00000000</c><c>  PAW_PBE Si 05Jan2001                  </c></rc>
   </set>
  </array>
 </atominfo>
 <structure name="initialpos" >
  <crystal>
   <varray name="basis" >
    <v>      10.93252578       0.00000000       0.00000000 </v>
    <v>       0.00000000      10.93252578       0.00000000 </v>
    <v>       0.00000000       0.00000000      10.93252578 </v>
   </varray>
   <i name="volume">   1306.65679237 </i>
   <varray name="rec_basis" >
    <v>       0.09147017       0.00000000       0.00000000 </v>
    <v>       0.00000000       0.09147017       0.00000000 </v>
    <v>       0.00000000       0.00000000       0.09147017 </v>
   </varray>
  </crystal>
  <varray name="positions" >
   <v>       0.44024411       0.43750000       0.43750000 </v>
   <v>       0.93750000       0.43750000       0.43750000 </v>
   <v>       0.43750000       0.93750000       0.43750000 </v>
   <v>       0.93750000       0.93750000       0.43750000 </v>
   <v>       0.43750000       0.43750000       0.93750000 </v>
   <v>       0.93750000       0.43750000       0.93750000 </v>
   <v>       0.43750000       0.93750000       0.93750000 </v>
   <v>       0.93750000       0.93750000       0.93750000 </v>
   <v>       0.43750000       0.18750000       0.18750000 </v>
   <v>       0.93750000       0.18750000       0.18750000 </v>
   <v>       0.43750000       0.68750000       0.18750000 </v>
   <v>       0.93750000       0.68750000       0.18750000 </v>
   <v>       0.43750000       0.18750000       0.68750000 </v>
   <v>       0.93750000       0.18750000       0.68750000 </v>
   <v>       0.43750000       0.68750000       0.68750000 </v>
   <v>       0.93750000       0.68750000       0.68750000 </v>
   <v>       0.18750000       0.43750000       0.18750000 </v>
   <v>       0.68750000       0.43750000       0.18750000 </v>
   <v>       0.18750000       0.94024411       0.18750000 </v>
   <v>       0.68750000       0.93750000       0.18750000 </v>
   <v>       0.18750000       0.43750000       0.68750000 </v>
   <v>       0.68750000       0.43750000       0.68750000 </v>
   <v>       0.18750000       0.93750000       0.68750000 </v>
   <v>       0.68750000       0.93750000       0.68750000 </v>
   <v>       0.18750000       0.18750000       0.43750000 </v>
   <v>       0.68750000       0.18750000       0.43750000 </v>
   <v>       0.18750000       0.68750000       0.43750000 </v>
   <v>       0.68750000       0.68750000       0.43750000 </v>
   <v>       0.18750000       0.18750000       0.93750000 </v>
   <v>       0.68750000       0.18750000       0.93750000 </v>
   <v>       0.18750000       0.68750000       0.93750000 </v>
   <v>       0.68750000       0.68750000       0.93750000 </v>
   <v>       0.06250000       0.06250000       0.06250000 </v>
   <v>       0.56250000       0.06250000       0.06250000 </v>
   <v>       0.06250000       0.56250000       0.06250000 </v>
   <v>       0.56250000       0.56250000       0.06250000 </v>
   <v>       0.06250000       0.06250000       0.56250000 </v>
   <v>       0.56250000       0.06250000       0.56250000 </v>
   <v>       0.06250000       0.56250000       0.56250000 </v>
   <v>       0.56250000       0.56250000       0.56250000 </v>
   <v>       0.06250000       0.31250000       0.31250000 </v>
   <v>       0.56250000       0.31250000       0.31250000 </v>
   <v>       0.06250000       0.81250000       0.31250000 </v>
   <v>       0.56250000       0.81250000       0.31250000 </v>
   <v>       0.06250000       0.31250000       0.81250000 </v>
   <v>       0.56250000       0.31250000       0.81250000 </v>
   <v>       0.06250000       0.81250000       0.81250000 </v>
   <v>       0.56250000       0.81250000       0.81250000 </v>
   <v>       0.31250000       0.06250000       0.31250000 </v>
   <v>       0.81250000       0.06250000       0.31250000 </v>
   <v>       0.31250000       0.56250000       0.31250000 </v>
   <v>       0.81250000       0.56250000       0.31250000 </v>
   <v>       0.31250000       0.06250000       0.81250000 </v>
   <v>       0.81250000       0.06250000       0.81250000 </v>
   <v>       0.31250000       0.56250000       0.81250000 </v>
   <v>       0.81250000       0.56250000       0.81250000 </v>
   <v>       0.31250000       0.31250000       0.06250000 </v>
   <v>       0.81250000       0.31250000       0.06250000 </v>
   <v>       0.31250000       0.81250000       0.06250000 </v>
   <v>       0.81250000       0.81250000       0.06250000 </v>
   <v>       0.31250000       0.31250000       0.56250000 </v>
   <v>       0.81250000       0.31250000       0.56250000 </v>
   <v>       0.31250000       0.81250000       0.56250000 </v>
   <v>       0.81250000       0.81250000       0.56250000 </v>
  </varray>
 </structure>
 <calculation>
  <scstep>
   <time name="dav">    4.19    4.19</time>
   <time name="total">    4.36    4.37</time>
   <energy>
    <i name="alphaZ">    105.52440745 </i>
    <i name="ewald">  -7265.47124648 </i>
    <i name="hartreedc">   -361.71239986 </i>
    <i name="XCdc">   -597.75714168 </i>
    <i name="pawpsdc">   5639.92317535 </i>
    <i name="pawaedc">  -4513.95313856 </i>
    <i name="eentropy">     -0.00116507 </i>
    <i name="bandstr">    856.86495715 </i>
    <i name="atom">   6596.14994790 </i>
    <i name="e_fr_energy">    459.56739620 </i>
    <i name="e_wo_entrp">    459.56856127 </i>
    <i name="e_0_energy">    459.56797873 </i>
   </energy>
  </scstep>
  <scstep>
   <time name="dav">    4.81    4.82</time>
   <time name="total">    4.81    4.82</time>
   <energy>
    <i name="e_fr_energy">   -300.07946701 </i>
    <i name="e_wo_entrp">   -300.07946701 </i>
    <i name="e_0_energy">   -300.07946701 </i>
   </energy>
  </scstep>
  <scstep>
   <time name="dav">    4.83    4.84</time>
   <time name="total">    4.83    4.84</time>
   <energy>
    <i name="e_fr_energy">   -350.93652385 </i>
    <i name="e_wo_entrp">   -350.93652385 </i>
    <i name="e_0_energy">   -350.93652385 </i>
   </energy>
  </scstep>
  <scstep>
   <time name="dav">    4.82    4.83</time>
   <time name="total">    4.82    4.83</time>
   <energy>
    <i name="e_fr_energy">   -352.26659525 </i>
    <i name="e_wo_entrp">   -352.26659525 </i>
    <i name="e_0_energy">   -352.26659525 </i>
   </energy>
  </scstep>
  <scstep>
   <time name="dav">    4.81    4.81</time>
   <time name="total">    5.04    5.05</time>
   <energy>
    <i name="e_fr_energy">   -352.31300732 </i>
    <i name="e_wo_entrp">   -352.31300732 </i>
    <i name="e_0_energy">   -352.31300732 </i>
   </energy>
  </scstep>
  <scstep>
   <time name="dav">    4.69    4.70</time>
   <time name="total">    5.09    5.10</time>
   <energy>
    <i name="e_fr_energy">   -348.58443351 </i>
    <i name="e_wo_entrp">   -348.58443351 </i>
    <i name="e_0_energy">   -348.58443351 </i>
   </energy>
  </scstep>
  <scstep>
   <time name="dav">    4.59    4.59</time>
   <time name="total">    4.99    5.00</time>
   <energy>
    <i name="e_fr_energy">   -346.87183938 </i>
    <i name="e_wo_entrp">   -346.87183938 </i>
    <i name="e_0_energy">   -346.87183938 </i>
   </energy>
  </scstep>
  <scstep>
   <time name="dav">    4.76    4.76</time>
   <time name="total">    5.16    5.17</time>
   <energy>
    <i name="e_fr_energy">   -346.89812314 </i>
    <i name="e_wo_entrp">   -346.89812314 </i>
    <i name="e_0_energy">   -346.89812314 </i>
   </energy>
  </scstep>
  <scstep>
   <time name="dav">    4.88    4.89</time>
   <time name="total">    5.28    5.29</time>
   <energy>
    <i name="e_fr_energy">   -346.90486850 </i>
    <i name="e_wo_entrp">   -346.90486850 </i>
    <i name="e_0_energy">   -346.90486850 </i>
   </energy>
  </scstep>
  <scstep>
   <time name="dav">    4.52    4.53</time>
   <time name="total">    4.92    4.93</time>
   <energy>
    <i name="e_fr_energy">   -346.90691251 </i>
    <i name="e_wo_entrp">   -346.90691251 </i>
    <i name="e_0_energy">   -346.90691251 </i>
   </energy>
  </scstep>
  <scstep>
   <time name="dav">    4.82    4.82</time>
   <time name="total">    5.21    5.23</time>
   <energy>
    <i name="e_fr_energy">   -346.90689135 </i>
    <i name="e_wo_entrp">   -346.90689135 </i>
    <i name="e_0_energy">   -346.90689135 </i>
   </energy>
  </scstep>
  <scstep>
   <time name="dav">    4.73    4.73</time>
   <time name="total">    5.12    5.14</time>
   <energy>
    <i name="e_fr_energy">   -346.90690571 </i>
    <i name="e_wo_entrp">   -346.90690571 </i>
    <i name="e_0_energy">   -346.90690571 </i>
   </energy>
  </scstep>
  <scstep>
   <time name="dav">    4.70    4.71</time>
   <time name="total">    5.11    5.12</time>
   <energy>
    <i name="e_fr_energy">   -346.90690627 </i>
    <i name="e_wo_entrp">   -346.90690627 </i>
    <i name="e_0_energy">   -346.90690627 </i>
   </energy>
  </scstep>
  <scstep>
   <time name="dav">    4.85    4.86</time>
   <time name="total">    5.24    5.30</time>
   <energy>
    <i name="e_fr_energy">   -346.90690687 </i>
    <i name="e_wo_entrp">   -346.90690687 </i>
    <i name="e_0_energy">   -346.90690687 </i>
   </energy>
  </scstep>
  <scstep>
   <time name="dav">    3.89    3.90</time>
   <time name="total">    4.28    4.30</time>
   <energy>
    <i name="e_fr_energy">   -346.90690663 </i>
    <i name="e_wo_entrp">   -346.90690663 </i>
    <i name="e_0_energy">   -346.90690663 </i>
   </energy>
  </scstep>
  <scstep>
   <time name="dav">    3.26    3.27</time>
   <time name="total">    3.65    3.67</time>
   <energy>
    <i name="e_fr_energy">   -346.90690669 </i>
    <i name="e_wo_entrp">   -346.90690669 </i>
    <i name="e_0_energy">   -346.90690669 </i>
   </energy>
  </scstep>
  <scstep>
   <time name="dav">    3.22    3.23</time>
   <time name="total">    3.62    3.64</time>
   <energy>
    <i name="e_fr_energy">   -346.90690668 </i>
    <i name="e_wo_entrp">   -346.90690668 </i>
    <i name="e_0_energy">   -346.90690668 </i>
   </energy>
  </scstep>
  <scstep>
   <time name="dav">    3.18    3.18</time>
   <time name="total">    3.57    3.59</time>
   <energy>
    <i name="e_fr_energy">   -346.90690669 </i>
    <i name="e_wo_entrp">   -346.90690669 </i>
    <i name="e_0_energy">   -346.90690669 </i>
   </energy>
  </scstep>
  <scstep>
   <time name="dav">    3.17    3.18</time>
   <time name="total">    3.34    3.37</time>
   <energy>
    <i name="alphaZ">    105.52440745 </i>
    <i name="ewald">  -7265.47124648 </i>
    <i name="hartreedc">   -485.14316612 </i>
    <i name="XCdc">   -577.61229083 </i>
    <i name="pawpsdc">  27883.43455971 </i>
    <i name="pawaedc"> -26764.15248806 </i>
    <i name="eentropy">      0.00000000 </i>
    <i name="bandstr">    160.36336973 </i>
    <i name="atom">   6596.14994790 </i>
    <i name="e_fr_energy">   -346.90690670 </i>
    <i name="e_wo_entrp">   -346.90690670 </i>
    <i name="e_0_energy">   -346.90690670 </i>
   </energy>
  </scstep>
  <structure>
   <crystal>
    <varray name="basis" >
     <v>      10.93252578       0.00000000       0.00000000 </v>
     <v>       0.00000000      10.93252578       0.00000000 </v>
     <v>       0.00000000       0.00000000      10.93252578 </v>
    </varray>
    <i name="volume">   1306.65679237 </i>
    <varray name="rec_basis" >
     <v>       0.09147017       0.00000000       0.00000000 </v>
     <v>       0.00000000       0.09147017       0.00000000 </v>
     <v>       0.00000000       0.00000000       0.09147017 </v>
    </varray>
   </crystal>
   <varray name="positions" >
    <v>       0.44024411       0.43750000       0.43750000 </v>
    <v>       0.93750000       0.43750000       0.43750000 </v>
    <v>       0.43750000       0.93750000       0.43750000 </v>
    <v>       0.93750000       0.93750000       0.43750000 </v>
    <v>       0.43750000       0.43750000       0.93750000 </v>
    <v>       0.93750000       0.43750000       0.93750000 </v>
    <v>       0.43750000       0.93750000       0.93750000 </v>
    <v>       0.93750000       0.93750000       0.93750000 </v>
    <v>       0.43750000       0.18750000       0.18750000 </v>
    <v>       0.93750000       0.18750000       0.18750000 </v>
    <v>       0.43750000       0.68750000       0.18750000 </v>
    <v>       0.93750000       0.68750000       0.18750000 </v>
    <v>       0.43750000       0.18750000       0.68750000 </v>
    <v>       0.93750000       0.18750000       0.68750000 </v>
    <v>       0.43750000       0.68750000       0.68750000 </v>
    <v>       0.93750000       0.68750000       0.68750000 </v>
    <v>       0.18750000       0.43750000       0.18750000 </v>
    <v>       0.68750000       0.43750000       0.18750000 </v>
    <v>       0.18750000       0.94024411       0.18750000 </v>
    <v>       0.68750000       0.93750000       0.18750000 </v>
    <v>       0.18750000       0.43750000       0.68750000 </v>
    <v>       0.68750000       0.43750000       0.68750000 </v>
    <v>       0.18750000       0.93750000       0.68750000 </v>
    <v>       0.68750000       0.93750000       0.68750000 </v>
    <v>       0.18750000       0.18750000       0.43750000 </v>
    <v>       0.68750000       0.18750000       0.43750000 </v>
    <v>       0.18750000       0.68750000       0.43750000 </v>
    <v>       0.68750000       0.68750000       0.43750000 </v>
    <v>       0.18750000       0.18750000       0.93750000 </v>
    <v>       0.68750000       0.18750000       0.93750000 </v>
    <v>       0.18750000       0.68750000       0.93750000 </v>
    <v>       0.68750000       0.68750000       0.93750000 </v>
    <v>       0.06250000       0.06250000       0.06250000 </v>
    <v>       0.56250000       0.06250000       0.06250000 </v>
    <v>       0.06250000       0.56250000       0.06250000 </v>
    <v>       0.56250000       0.56250000       0.06250000 </v>
    <v>       0.06250000       0.06250000       0.56250000 </v>
    <v>       0.56250000       0.06250000       0.56250000 </v>
    <v>       0.06250000       0.56250000       0.56250000 </v>
    <v>       0.56250000       0.56250000       0.56250000 </v>
    <v>       0.06250000       0.31250000       0.31250000 </v>
    <v>       0.56250000       0.31250000       0.31250000 </v>
    <v>       0.06250000       0.81250000       0.31250000 </v>
    <v>       0.56250000       0.81250000       0.31250000 </v>
    <v>       0.06250000       0.31250000       0.81250000 </v>
    <v>       0.56250000       0.31250000       0.81250000 </v>
    <v>       0.06250000       0.81250000       0.81250000 </v>
    <v>       0.56250000       0.81250000       0.81250000 </v>
    <v>       0.31250000       0.06250000       0.31250000 </v>
    <v>       0.81250000       0.06250000       0.31250000 </v>
    <v>       0.31250000       0.56250000       0.31250000 </v>
    <v>       0.81250000       0.56250000       0.31250000 </v>
    <v>       0.31250000       0.06250000       0.81250000 </v>
    <v>       0.81250000       0.06250000       0.81250000 </v>
    <v>       0.31250000       0.56250000       0.81250000 </v>
    <v>       0.81250000       0.56250000       0.81250000 </v>
    <v>       0.31250000       0.31250000       0.06250000 </v>
    <v>       0.81250000       0.31250000       0.06250000 </v>
    <v>       0.31250000       0.81250000       0.06250000 </v>
    <v>       0.81250000       0.81250000       0.06250000 </v>
    <v>       0.31250000       0.31250000       0.56250000 </v>
    <v>       0.81250000       0.31250000       0.56250000 </v>
    <v>       0.31250000       0.81250000       0.56250000 </v>
    <v>       0.81250000       0.81250000       0.56250000 </v>
   </varray>
  </structure>
  <varray name="forces" >
   <v>      -0.38736478      -0.00002196      -0.00022919 </v>
   <v>       0.00031600      -0.00000105       0.00023385 </v>
   <v>      -0.00145748      -0.01288128      -0.00277051 </v>
   <v>      -0.00283967      -0.01277339       0.00267041 </v>
   <v>       0.00155091      -0.00000132      -0.00023316 </v>
   <v>       0.00004881      -0.00002361       0.00022793 </v>
   <v>      -0.00889442      -0.01277777      -0.00265849 </v>
   <v>       0.00334873      -0.01288173       0.00277370 </v>
   <v>      -0.00719942       0.00857109       0.00553941 </v>
   <v>      -0.00571537       0.00602863      -0.00254222 </v>
   <v>      -0.01833562       0.00830702       0.00001237 </v>
   <v>       0.00555993       0.00588058      -0.00290728 </v>
   <v>      -0.01462479      -0.00164419       0.00289324 </v>
   <v>       0.00184535       0.00078653       0.00000329 </v>
   <v>      -0.01101489      -0.00175159      -0.00254100 </v>
   <v>      -0.00188695       0.00079273      -0.00045454 </v>
   <v>       0.00564880      -0.00212443       0.00556007 </v>
   <v>       0.00580342      -0.00294269      -0.00569448 </v>
   <v>       0.00100340      -0.38736139      -0.00186348 </v>
   <v>       0.00102039       0.00108811       0.00184679 </v>
   <v>       0.00564959       0.00249474      -0.00556458 </v>
   <v>       0.00580231       0.00334865       0.00568951 </v>
   <v>       0.00101684       0.00154666       0.00186271 </v>
   <v>       0.00102570      -0.01132117      -0.00185020 </v>
   <v>       0.00841509       0.01136467       0.00302537 </v>
   <v>       0.00603250      -0.00466967      -0.00461513 </v>
   <v>       0.00831952       0.00008824      -0.00288375 </v>
   <v>       0.00603251       0.00670862       0.00463135 </v>
   <v>      -0.00174807       0.00393881      -0.00591920 </v>
   <v>       0.00079267       0.00286892       0.00161761 </v>
   <v>      -0.00165578       0.00751122       0.00578635 </v>
   <v>       0.00079292      -0.00083107      -0.00163187 </v>
   <v>      -0.06664499       0.09656087      -0.06536234 </v>
   <v>       0.00529019      -0.00078785      -0.00052693 </v>
   <v>      -0.00029237       0.00037758      -0.00030832 </v>
   <v>      -0.00207683       0.00182910       0.00027118 </v>
   <v>      -0.00059136      -0.00087274      -0.00027156 </v>
   <v>      -0.00216239       0.00713863       0.00052695 </v>
   <v>      -0.00093104       0.00152727       0.00030754 </v>
   <v>       0.09504951       0.06557187       0.06535639 </v>
   <v>       0.00062800      -0.00118880      -0.00181428 </v>
   <v>       0.09643432      -0.06544025      -0.06680573 </v>
   <v>       0.06158148       0.09246290      -0.06161446 </v>
   <v>      -0.00058638      -0.00236000      -0.00245912 </v>
   <v>       0.00132437       0.00000743      -0.00124008 </v>
   <v>      -0.00073039      -0.00174610      -0.00167192 </v>
   <v>       0.00071042      -0.00218843      -0.00164467 </v>
   <v>       0.00688527       0.00544261      -0.00136778 </v>
   <v>       0.06468254       0.09491301       0.06735124 </v>
   <v>       0.00158670      -0.00211446       0.00191723 </v>
   <v>       0.09399691      -0.06123657       0.06186159 </v>
   <v>       0.00032355      -0.00028596       0.00155896 </v>
   <v>       0.00734672      -0.00214835       0.00160265 </v>
   <v>       0.00015013       0.00546792       0.00143099 </v>
   <v>      -0.00077843      -0.00062814       0.00149110 </v>
   <v>       0.00141763      -0.00124379       0.00139370 </v>
   <v>      -0.00233781       0.00096840       0.00001441 </v>
   <v>       0.00002484       0.00136698       0.00006681 </v>
   <v>      -0.05481491       0.09375717       0.06029032 </v>
   <v>      -0.00142481      -0.00068712       0.00050017 </v>
   <v>       0.09236410       0.06161823      -0.06032186 </v>
   <v>      -0.00102329       0.00036962      -0.00015793 </v>
   <v>      -0.00267784      -0.00054322      -0.00035697 </v>
   <v>      -0.00001197       0.00677528      -0.00003216 </v>
  </varray>
  <varray name="stress" >
   <v>       0.00161344       0.00000884       0.33485947 </v>
   <v>       0.00000883       0.00166088       0.33478406 </v>
   <v>       0.33485943       0.33478404       0.02088290 </v>
  </varray>
  <energy>
   <i name="e_fr_energy">   -346.90690670 </i>
   <i name="e_wo_entrp">   -346.90690670 </i>
   <i name="e_0_energy">      0.00000000 </i>
  </energy>
  <time name="totalsc">   98.12   98.51</time>
  <eigenvalues>
   <array>
    <dimension dim="1">band</dimension>
    <dimension dim="2">kpoint</dimension>
    <dimension dim="3">spin</dimension>
    <field>eigene</field>
    <field>occ</field>
    <set>
     <set comment="spin 1">
      <set comment="kpoint 1">
       <r>   -5.9931    1.0000 </r>
       <r>   -5.4692    1.0000 </r>
       <r>   -5.4632    1.0000 </r>
       <r>   -5.4622    1.0000 </r>
       <r>   -4.9696    1.0000 </r>
       <r>   -4.9639    1.0000 </r>
       <r>   -4.9630    1.0000 </r>
       <r>   -4.5312    1.0000 </r>
       <r>   -4.4361    1.0000 </r>
       <r>   -4.4307    1.0000 </r>
       <r>   -4.4294    1.0000 </r>
       <r>   -4.0294    1.0000 </r>
       <r>   -4.0162    1.0000 </r>
       <r>   -4.0159    1.0000 </r>
       <r>   -4.0151    1.0000 </r>
       <r>   -4.0132    1.0000 </r>
       <r>   -4.0117    1.0000 </r>
       <r>   -3.8295    1.0000 </r>
       <r>   -3.8238    1.0000 </r>
       <r>   -3.8217    1.0000 </r>
       <r>   -3.3298    1.0000 </r>
       <r>   -3.3257    1.0000 </r>
       <r>   -3.3242    1.0000 </r>
       <r>   -2.9650    1.0000 </r>
       <r>   -2.9577    1.0000 </r>
       <r>   -2.9559    1.0000 </r>
       <r>   -2.8019    1.0000 </r>
       <r>   -2.7915    1.0000 </r>
       <r>   -2.7905    1.0000 </r>
       <r>   -2.7893    1.0000 </r>
       <r>   -2.7875    1.0000 </r>
       <r>   -2.7860    1.0000 </r>
       <r>   -1.2566    1.0000 </r>
       <r>   -1.2516    1.0000 </r>
       <r>   -1.2482    1.0000 </r>
       <r>   -1.2464    1.0000 </r>
       <r>   -1.2453    1.0000 </r>
       <r>   -1.2426    1.0000 </r>
       <r>   -1.1558    1.0000 </r>
       <r>   -1.1485    1.0000 </r>
       <r>   -1.1464    1.0000 </r>
       <r>   -1.0345    1.0000 </r>
       <r>   -1.0321    1.0000 </r>
       <r>   -1.0265    1.0000 </r>
       <r>   -0.9590    1.0000 </r>
       <r>   -0.9476    1.0000 </r>
       <r>   -0.9456    1.0000 </r>
       <r>   -0.2481    1.0000 </r>
       <r>   -0.1674    1.0000 </r>
       <r>   -0.1617    1.0000 </r>
       <r>   -0.1597    1.0000 </r>
       <r>   -0.1576    1.0000 </r>
       <r>   -0.1546    1.0000 </r>
       <r>   -0.1512    1.0000 </r>
       <r>    0.7063    1.0000 </r>
       <r>    0.7130    1.0000 </r>
       <r>    0.7166    1.0000 </r>
       <r>    1.0454    1.0000 </r>
       <r>    1.0460    1.0000 </r>
       <r>    1.0500    1.0000 </r>
       <r>    1.6530    1.0000 </r>
       <r>    1.6542    1.0000 </r>
       <r>    1.6560    1.0000 </r>
       <r>    1.6583    1.0000 </r>
       <r>    1.6602    1.0000 </r>
       <r>    1.6606    1.0000 </r>
       <r>    1.7152    1.0000 </r>
       <r>    1.7168    1.0000 </r>
       <r>    1.7196    1.0000 </r>
       <r>    2.2632    1.0000 </r>
       <r>    2.2666    1.0000 </r>
       <r>    2.2678    1.0000 </r>
       <r>    2.3671    1.0000 </r>
       <r>    2.3681    1.0000 </r>
       <r>    2.3709    1.0000 </r>
       <r>    2.3734    1.0000 </r>
       <r>    2.3758    1.0000 </r>
       <r>    2.3768    1.0000 </r>
       <r>    2.4239    1.0000 </r>
       <r>    2.4282    1.0000 </r>
       <r>    2.4298    1.0000 </r>
       <r>    2.7279    1.0000 </r>
       <r>    2.7326    1.0000 </r>
       <r>    2.7350    1.0000 </r>
       <r>    2.7361    1.0000 </r>
       <r>    2.7375    1.0000 </r>
       <r>    2.7395    1.0000 </r>
       <r>    2.9986    1.0000 </r>
       <r>    3.0010    1.0000 </r>
       <r>    3.0017    1.0000 </r>
       <r>    3.0128    1.0000 </r>
       <r>    3.0137    1.0000 </r>
       <r>    3.0172    1.0000 </r>
       <r>    3.3553    1.0000 </r>
       <r>    3.3618    1.0000 </r>
       <r>    3.3630    1.0000 </r>
       <r>    3.3774    1.0000 </r>
       <r>    3.3826    1.0000 </r>
       <r>    3.3844    1.0000 </r>
       <r>    3.4654    1.0000 </r>
       <r>    3.4683    1.0000 </r>
       <r>    3.4695    1.0000 </r>
       <r>    3.7299    1.0000 </r>
       <r>    3.7350    1.0000 </r>
       <r>    3.7387    1.0000 </r>
       <r>    3.7419    1.0000 </r>
       <r>    3.7428    1.0000 </r>
       <r>    3.7436    1.0000 </r>
       <r>    3.7795    1.0000 </r>
       <r>    3.7825    1.0000 </r>
       <r>    3.7841    1.0000 </r>
       <r>    4.0366    1.0000 </r>
       <r>    4.0982    1.0000 </r>
       <r>    4.1008    1.0000 </r>
       <r>    4.1017    1.0000 </r>
       <r>    4.3403    1.0000 </r>
       <r>    4.3434    1.0000 </r>
       <r>    4.3451    1.0000 </r>
       <r>    4.3953    1.0000 </r>
       <r>    4.4032    1.0000 </r>
       <r>    4.4053    1.0000 </r>
       <r>    4.5617    1.0000 </r>
       <r>    4.5664    1.0000 </r>
       <r>    4.8692    1.0000 </r>
       <r>    4.8730    1.0000 </r>
       <r>    4.8759    1.0000 </r>
       <r>    5.3493    1.0000 </r>
       <r>    5.3547    1.0000 </r>
       <r>    6.5618    0.0000 </r>
       <r>    6.5656    0.0000 </r>
       <r>    6.5675    0.0000 </r>
       <r>    7.0020    0.0000 </r>
       <r>    7.0045    0.0000 </r>
       <r>    7.0090    0.0000 </r>
       <r>    7.2351    0.0000 </r>
       <r>    7.4895    0.0000 </r>
       <r>    7.4918    0.0000 </r>
       <r>    7.4955    0.0000 </r>
       <r>    7.6151    0.0000 </r>
       <r>    7.6169    0.0000 </r>
       <r>    7.6225    0.0000 </r>
       <r>    7.7780    0.0000 </r>
       <r>    7.7798    0.0000 </r>
       <r>    7.7826    0.0000 </r>
       <r>    7.7993    0.0000 </r>
       <r>    7.8029    0.0000 </r>
       <r>    7.8041    0.0000 </r>
       <r>    8.0214    0.0000 </r>
       <r>    8.0237    0.0000 </r>
       <r>    8.0301    0.0000 </r>
       <r>    8.0313    0.0000 </r>
       <r>    8.0323    0.0000 </r>
       <r>    8.0337    0.0000 </r>
       <r>    8.0840    0.0000 </r>
       <r>    8.2935    0.0000 </r>
       <r>    8.2940    0.0000 </r>
       <r>    8.2980    0.0000 </r>
       <r>    8.4933    0.0000 </r>
       <r>    8.5000    0.0000 </r>
       <r>    8.5017    0.0000 </r>
       <r>    8.5042    0.0000 </r>
       <r>    8.5090    0.0000 </r>
       <r>    8.5210    0.0000 </r>
       <r>    8.5441    0.0000 </r>
      </set>
      <set comment="kpoint 2">
       <r>   -5.9932    1.0000 </r>
       <r>   -5.4686    1.0000 </r>
       <r>   -5.4643    1.0000 </r>
       <r>   -5.4613    1.0000 </r>
       <r>   -4.9695    1.0000 </r>
       <r>   -4.9651    1.0000 </r>
       <r>   -4.9620    1.0000 </r>
       <r>   -4.5322    1.0000 </r>
       <r>   -4.4364    1.0000 </r>
       <r>   -4.4318    1.0000 </r>
       <r>   -4.4291    1.0000 </r>
       <r>   -4.0258    1.0000 </r>
       <r>   -4.0191    1.0000 </r>
       <r>   -4.0163    1.0000 </r>
       <r>   -4.0146    1.0000 </r>
       <r>   -4.0143    1.0000 </r>
       <r>   -4.0086    1.0000 </r>
       <r>   -3.8282    1.0000 </r>
       <r>   -3.8244    1.0000 </r>
       <r>   -3.8203    1.0000 </r>
       <r>   -3.3333    1.0000 </r>
       <r>   -3.3274    1.0000 </r>
       <r>   -3.3243    1.0000 </r>
       <r>   -2.9628    1.0000 </r>
       <r>   -2.9591    1.0000 </r>
       <r>   -2.9558    1.0000 </r>
       <r>   -2.7997    1.0000 </r>
       <r>   -2.7932    1.0000 </r>
       <r>   -2.7909    1.0000 </r>
       <r>   -2.7891    1.0000 </r>
       <r>   -2.7885    1.0000 </r>
       <r>   -2.7835    1.0000 </r>
       <r>   -1.2571    1.0000 </r>
       <r>   -1.2518    1.0000 </r>
       <r>   -1.2486    1.0000 </r>
       <r>   -1.2478    1.0000 </r>
       <r>   -1.2459    1.0000 </r>
       <r>   -1.2425    1.0000 </r>
       <r>   -1.1543    1.0000 </r>
       <r>   -1.1510    1.0000 </r>
       <r>   -1.1476    1.0000 </r>
       <r>   -1.0377    1.0000 </r>
       <r>   -1.0328    1.0000 </r>
       <r>   -1.0275    1.0000 </r>
       <r>   -0.9539    1.0000 </r>
       <r>   -0.9464    1.0000 </r>
       <r>   -0.9399    1.0000 </r>
       <r>   -0.2445    1.0000 </r>
       <r>   -0.1687    1.0000 </r>
       <r>   -0.1639    1.0000 </r>
       <r>   -0.1609    1.0000 </r>
       <r>   -0.1578    1.0000 </r>
       <r>   -0.1565    1.0000 </r>
       <r>   -0.1530    1.0000 </r>
       <r>    0.7085    1.0000 </r>
       <r>    0.7147    1.0000 </r>
       <r>    0.7196    1.0000 </r>
       <r>    1.0428    1.0000 </r>
       <r>    1.0474    1.0000 </r>
       <r>    1.0512    1.0000 </r>
       <r>    1.6523    1.0000 </r>
       <r>    1.6550    1.0000 </r>
       <r>    1.6567    1.0000 </r>
       <r>    1.6572    1.0000 </r>
       <r>    1.6592    1.0000 </r>
       <r>    1.6611    1.0000 </r>
       <r>    1.7131    1.0000 </r>
       <r>    1.7163    1.0000 </r>
       <r>    1.7190    1.0000 </r>
       <r>    2.2655    1.0000 </r>
       <r>    2.2679    1.0000 </r>
       <r>    2.2699    1.0000 </r>
       <r>    2.3650    1.0000 </r>
       <r>    2.3667    1.0000 </r>
       <r>    2.3708    1.0000 </r>
       <r>    2.3727    1.0000 </r>
       <r>    2.3747    1.0000 </r>
       <r>    2.3752    1.0000 </r>
       <r>    2.4216    1.0000 </r>
       <r>    2.4255    1.0000 </r>
       <r>    2.4280    1.0000 </r>
       <r>    2.7282    1.0000 </r>
       <r>    2.7322    1.0000 </r>
       <r>    2.7349    1.0000 </r>
       <r>    2.7362    1.0000 </r>
       <r>    2.7371    1.0000 </r>
       <r>    2.7411    1.0000 </r>
       <r>    2.9970    1.0000 </r>
       <r>    2.9989    1.0000 </r>
       <r>    3.0016    1.0000 </r>
       <r>    3.0095    1.0000 </r>
       <r>    3.0135    1.0000 </r>
       <r>    3.0176    1.0000 </r>
       <r>    3.3580    1.0000 </r>
       <r>    3.3619    1.0000 </r>
       <r>    3.3657    1.0000 </r>
       <r>    3.3810    1.0000 </r>
       <r>    3.3840    1.0000 </r>
       <r>    3.3883    1.0000 </r>
       <r>    3.4633    1.0000 </r>
       <r>    3.4674    1.0000 </r>
       <r>    3.4692    1.0000 </r>
       <r>    3.7336    1.0000 </r>
       <r>    3.7387    1.0000 </r>
       <r>    3.7412    1.0000 </r>
       <r>    3.7419    1.0000 </r>
       <r>    3.7439    1.0000 </r>
       <r>    3.7483    1.0000 </r>
       <r>    3.7770    1.0000 </r>
       <r>    3.7817    1.0000 </r>
       <r>    3.7836    1.0000 </r>
       <r>    4.0404    1.0000 </r>
       <r>    4.0948    1.0000 </r>
       <r>    4.0978    1.0000 </r>
       <r>    4.1014    1.0000 </r>
       <r>    4.3373    1.0000 </r>
       <r>    4.3415    1.0000 </r>
       <r>    4.3442    1.0000 </r>
       <r>    4.4001    1.0000 </r>
       <r>    4.4058    1.0000 </r>
       <r>    4.4118    1.0000 </r>
       <r>    4.5588    1.0000 </r>
       <r>    4.5670    1.0000 </r>
       <r>    4.8653    1.0000 </r>
       <r>    4.8708    1.0000 </r>
       <r>    4.8742    1.0000 </r>
       <r>    5.3451    1.0000 </r>
       <r>    5.3544    1.0000 </r>
       <r>    6.5603    0.0000 </r>
       <r>    6.5628    0.0000 </r>
       <r>    6.5670    0.0000 </r>
       <r>    7.0012    0.0000 </r>
       <r>    7.0052    0.0000 </r>
       <r>    7.0070    0.0000 </r>
       <r>    7.2337    0.0000 </r>
       <r>    7.4876    0.0000 </r>
       <r>    7.4906    0.0000 </r>
       <r>    7.4938    0.0000 </r>
       <r>    7.6158    0.0000 </r>
       <r>    7.6196    0.0000 </r>
       <r>    7.6233    0.0000 </r>
       <r>    7.7777    0.0000 </r>
       <r>    7.7794    0.0000 </r>
       <r>    7.7825    0.0000 </r>
       <r>    7.7984    0.0000 </r>
       <r>    7.8001    0.0000 </r>
       <r>    7.8051    0.0000 </r>
       <r>    8.0225    0.0000 </r>
       <r>    8.0273    0.0000 </r>
       <r>    8.0299    0.0000 </r>
       <r>    8.0325    0.0000 </r>
       <r>    8.0346    0.0000 </r>
       <r>    8.0362    0.0000 </r>
       <r>    8.0815    0.0000 </r>
       <r>    8.2928    0.0000 </r>
       <r>    8.2952    0.0000 </r>
       <r>    8.2970    0.0000 </r>
       <r>    8.4939    0.0000 </r>
       <r>    8.4987    0.0000 </r>
       <r>    8.5015    0.0000 </r>
       <r>    8.5062    0.0000 </r>
       <r>    8.5096    0.0000 </r>
       <r>    8.5231    0.0000 </r>
       <r>    8.5392    0.0000 </r>
      </set>
      <set comment="kpoint 3">
       <r>   -5.9932    1.0000 </r>
       <r>   -5.4682    1.0000 </r>
       <r>   -5.4651    1.0000 </r>
       <r>   -5.4610    1.0000 </r>
       <r>   -4.9689    1.0000 </r>
       <r>   -4.9658    1.0000 </r>
       <r>   -4.9618    1.0000 </r>
       <r>   -4.5323    1.0000 </r>
       <r>   -4.4357    1.0000 </r>
       <r>   -4.4329    1.0000 </r>
       <r>   -4.4288    1.0000 </r>
       <r>   -4.0250    1.0000 </r>
       <r>   -4.0185    1.0000 </r>
       <r>   -4.0169    1.0000 </r>
       <r>   -4.0152    1.0000 </r>
       <r>   -4.0142    1.0000 </r>
       <r>   -4.0088    1.0000 </r>
       <r>   -3.8283    1.0000 </r>
       <r>   -3.8243    1.0000 </r>
       <r>   -3.8203    1.0000 </r>
       <r>   -3.3313    1.0000 </r>
       <r>   -3.3288    1.0000 </r>
       <r>   -3.3250    1.0000 </r>
       <r>   -2.9627    1.0000 </r>
       <r>   -2.9591    1.0000 </r>
       <r>   -2.9558    1.0000 </r>
       <r>   -2.7998    1.0000 </r>
       <r>   -2.7932    1.0000 </r>
       <r>   -2.7914    1.0000 </r>
       <r>   -2.7896    1.0000 </r>
       <r>   -2.7879    1.0000 </r>
       <r>   -2.7831    1.0000 </r>
       <r>   -1.2587    1.0000 </r>
       <r>   -1.2519    1.0000 </r>
       <r>   -1.2491    1.0000 </r>
       <r>   -1.2478    1.0000 </r>
       <r>   -1.2454    1.0000 </r>
       <r>   -1.2405    1.0000 </r>
       <r>   -1.1543    1.0000 </r>
       <r>   -1.1510    1.0000 </r>
       <r>   -1.1478    1.0000 </r>
       <r>   -1.0376    1.0000 </r>
       <r>   -1.0327    1.0000 </r>
       <r>   -1.0276    1.0000 </r>
       <r>   -0.9526    1.0000 </r>
       <r>   -0.9459    1.0000 </r>
       <r>   -0.9417    1.0000 </r>
       <r>   -0.2446    1.0000 </r>
       <r>   -0.1692    1.0000 </r>
       <r>   -0.1631    1.0000 </r>
       <r>   -0.1608    1.0000 </r>
       <r>   -0.1595    1.0000 </r>
       <r>   -0.1565    1.0000 </r>
       <r>   -0.1516    1.0000 </r>
       <r>    0.7101    1.0000 </r>
       <r>    0.7147    1.0000 </r>
       <r>    0.7181    1.0000 </r>
       <r>    1.0434    1.0000 </r>
       <r>    1.0471    1.0000 </r>
       <r>    1.0508    1.0000 </r>
       <r>    1.6524    1.0000 </r>
       <r>    1.6537    1.0000 </r>
       <r>    1.6572    1.0000 </r>
       <r>    1.6577    1.0000 </r>
       <r>    1.6589    1.0000 </r>
       <r>    1.6616    1.0000 </r>
       <r>    1.7132    1.0000 </r>
       <r>    1.7163    1.0000 </r>
       <r>    1.7190    1.0000 </r>
       <r>    2.2656    1.0000 </r>
       <r>    2.2675    1.0000 </r>
       <r>    2.2700    1.0000 </r>
       <r>    2.3649    1.0000 </r>
       <r>    2.3674    1.0000 </r>
       <r>    2.3706    1.0000 </r>
       <r>    2.3716    1.0000 </r>
       <r>    2.3738    1.0000 </r>
       <r>    2.3764    1.0000 </r>
       <r>    2.4213    1.0000 </r>
       <r>    2.4245    1.0000 </r>
       <r>    2.4295    1.0000 </r>
       <r>    2.7288    1.0000 </r>
       <r>    2.7331    1.0000 </r>
       <r>    2.7342    1.0000 </r>
       <r>    2.7352    1.0000 </r>
       <r>    2.7362    1.0000 </r>
       <r>    2.7421    1.0000 </r>
       <r>    2.9963    1.0000 </r>
       <r>    2.9999    1.0000 </r>
       <r>    3.0014    1.0000 </r>
       <r>    3.0100    1.0000 </r>
       <r>    3.0134    1.0000 </r>
       <r>    3.0172    1.0000 </r>
       <r>    3.3580    1.0000 </r>
       <r>    3.3622    1.0000 </r>
       <r>    3.3654    1.0000 </r>
       <r>    3.3808    1.0000 </r>
       <r>    3.3847    1.0000 </r>
       <r>    3.3878    1.0000 </r>
       <r>    3.4634    1.0000 </r>
       <r>    3.4668    1.0000 </r>
       <r>    3.4698    1.0000 </r>
       <r>    3.7332    1.0000 </r>
       <r>    3.7395    1.0000 </r>
       <r>    3.7408    1.0000 </r>
       <r>    3.7420    1.0000 </r>
       <r>    3.7438    1.0000 </r>
       <r>    3.7481    1.0000 </r>
       <r>    3.7771    1.0000 </r>
       <r>    3.7809    1.0000 </r>
       <r>    3.7845    1.0000 </r>
       <r>    4.0406    1.0000 </r>
       <r>    4.0946    1.0000 </r>
       <r>    4.0984    1.0000 </r>
       <r>    4.1009    1.0000 </r>
       <r>    4.3372    1.0000 </r>
       <r>    4.3412    1.0000 </r>
       <r>    4.3445    1.0000 </r>
       <r>    4.4022    1.0000 </r>
       <r>    4.4060    1.0000 </r>
       <r>    4.4097    1.0000 </r>
       <r>    4.5588    1.0000 </r>
       <r>    4.5670    1.0000 </r>
       <r>    4.8650    1.0000 </r>
       <r>    4.8703    1.0000 </r>
       <r>    4.8749    1.0000 </r>
       <r>    5.3451    1.0000 </r>
       <r>    5.3544    1.0000 </r>
       <r>    6.5597    0.0000 </r>
       <r>    6.5638    0.0000 </r>
       <r>    6.5666    0.0000 </r>
       <r>    6.9990    0.0000 </r>
       <r>    7.0056    0.0000 </r>
       <r>    7.0088    0.0000 </r>
       <r>    7.2337    0.0000 </r>
       <r>    7.4858    0.0000 </r>
       <r>    7.4918    0.0000 </r>
       <r>    7.4945    0.0000 </r>
       <r>    7.6157    0.0000 </r>
       <r>    7.6196    0.0000 </r>
       <r>    7.6233    0.0000 </r>
       <r>    7.7766    0.0000 </r>
       <r>    7.7804    0.0000 </r>
       <r>    7.7819    0.0000 </r>
       <r>    7.7976    0.0000 </r>
       <r>    7.8023    0.0000 </r>
       <r>    7.8045    0.0000 </r>
       <r>    8.0230    0.0000 </r>
       <r>    8.0275    0.0000 </r>
       <r>    8.0307    0.0000 </r>
       <r>    8.0312    0.0000 </r>
       <r>    8.0331    0.0000 </r>
       <r>    8.0374    0.0000 </r>
       <r>    8.0816    0.0000 </r>
       <r>    8.2913    0.0000 </r>
       <r>    8.2955    0.0000 </r>
       <r>    8.2981    0.0000 </r>
       <r>    8.4941    0.0000 </r>
       <r>    8.4998    0.0000 </r>
       <r>    8.5027    0.0000 </r>
       <r>    8.5040    0.0000 </r>
       <r>    8.5091    0.0000 </r>
       <r>    8.5165    0.0000 </r>
       <r>    8.5405    0.0000 </r>
      </set>
      <set comment="kpoint 4">
       <r>   -5.9932    1.0000 </r>
       <r>   -5.4672    1.0000 </r>
       <r>   -5.4662    1.0000 </r>
       <r>   -5.4606    1.0000 </r>
       <r>   -4.9682    1.0000 </r>
       <r>   -4.9671    1.0000 </r>
       <r>   -4.9613    1.0000 </r>
       <r>   -4.5333    1.0000 </r>
       <r>   -4.4354    1.0000 </r>
       <r>   -4.4342    1.0000 </r>
       <r>   -4.4287    1.0000 </r>
       <r>   -4.0219    1.0000 </r>
       <r>   -4.0194    1.0000 </r>
       <r>   -4.0190    1.0000 </r>
       <r>   -4.0162    1.0000 </r>
       <r>   -4.0117    1.0000 </r>
       <r>   -4.0077    1.0000 </r>
       <r>   -3.8270    1.0000 </r>
       <r>   -3.8248    1.0000 </r>
       <r>   -3.8191    1.0000 </r>
       <r>   -3.3342    1.0000 </r>
       <r>   -3.3311    1.0000 </r>
       <r>   -3.3251    1.0000 </r>
       <r>   -2.9622    1.0000 </r>
       <r>   -2.9607    1.0000 </r>
       <r>   -2.9535    1.0000 </r>
       <r>   -2.7968    1.0000 </r>
       <r>   -2.7940    1.0000 </r>
       <r>   -2.7928    1.0000 </r>
       <r>   -2.7907    1.0000 </r>
       <r>   -2.7854    1.0000 </r>
       <r>   -2.7834    1.0000 </r>
       <r>   -1.2560    1.0000 </r>
       <r>   -1.2529    1.0000 </r>
       <r>   -1.2519    1.0000 </r>
       <r>   -1.2486    1.0000 </r>
       <r>   -1.2447    1.0000 </r>
       <r>   -1.2422    1.0000 </r>
       <r>   -1.1559    1.0000 </r>
       <r>   -1.1535    1.0000 </r>
       <r>   -1.1461    1.0000 </r>
       <r>   -1.0385    1.0000 </r>
       <r>   -1.0335    1.0000 </r>
       <r>   -1.0309    1.0000 </r>
       <r>   -0.9477    1.0000 </r>
       <r>   -0.9423    1.0000 </r>
       <r>   -0.9377    1.0000 </r>
       <r>   -0.2411    1.0000 </r>
       <r>   -0.1688    1.0000 </r>
       <r>   -0.1673    1.0000 </r>
       <r>   -0.1632    1.0000 </r>
       <r>   -0.1600    1.0000 </r>
       <r>   -0.1576    1.0000 </r>
       <r>   -0.1524    1.0000 </r>
       <r>    0.7122    1.0000 </r>
       <r>    0.7168    1.0000 </r>
       <r>    0.7207    1.0000 </r>
       <r>    1.0445    1.0000 </r>
       <r>    1.0466    1.0000 </r>
       <r>    1.0500    1.0000 </r>
       <r>    1.6524    1.0000 </r>
       <r>    1.6554    1.0000 </r>
       <r>    1.6563    1.0000 </r>
       <r>    1.6571    1.0000 </r>
       <r>    1.6587    1.0000 </r>
       <r>    1.6608    1.0000 </r>
       <r>    1.7129    1.0000 </r>
       <r>    1.7141    1.0000 </r>
       <r>    1.7183    1.0000 </r>
       <r>    2.2676    1.0000 </r>
       <r>    2.2688    1.0000 </r>
       <r>    2.2723    1.0000 </r>
       <r>    2.3626    1.0000 </r>
       <r>    2.3662    1.0000 </r>
       <r>    2.3696    1.0000 </r>
       <r>    2.3711    1.0000 </r>
       <r>    2.3732    1.0000 </r>
       <r>    2.3744    1.0000 </r>
       <r>    2.4202    1.0000 </r>
       <r>    2.4237    1.0000 </r>
       <r>    2.4250    1.0000 </r>
       <r>    2.7301    1.0000 </r>
       <r>    2.7322    1.0000 </r>
       <r>    2.7335    1.0000 </r>
       <r>    2.7356    1.0000 </r>
       <r>    2.7386    1.0000 </r>
       <r>    2.7406    1.0000 </r>
       <r>    2.9967    1.0000 </r>
       <r>    2.9977    1.0000 </r>
       <r>    3.0001    1.0000 </r>
       <r>    3.0097    1.0000 </r>
       <r>    3.0118    1.0000 </r>
       <r>    3.0154    1.0000 </r>
       <r>    3.3610    1.0000 </r>
       <r>    3.3624    1.0000 </r>
       <r>    3.3676    1.0000 </r>
       <r>    3.3841    1.0000 </r>
       <r>    3.3864    1.0000 </r>
       <r>    3.3920    1.0000 </r>
       <r>    3.4620    1.0000 </r>
       <r>    3.4663    1.0000 </r>
       <r>    3.4683    1.0000 </r>
       <r>    3.7387    1.0000 </r>
       <r>    3.7406    1.0000 </r>
       <r>    3.7414    1.0000 </r>
       <r>    3.7443    1.0000 </r>
       <r>    3.7470    1.0000 </r>
       <r>    3.7509    1.0000 </r>
       <r>    3.7754    1.0000 </r>
       <r>    3.7803    1.0000 </r>
       <r>    3.7830    1.0000 </r>
       <r>    4.0445    1.0000 </r>
       <r>    4.0941    1.0000 </r>
       <r>    4.0951    1.0000 </r>
       <r>    4.0981    1.0000 </r>
       <r>    4.3351    1.0000 </r>
       <r>    4.3402    1.0000 </r>
       <r>    4.3419    1.0000 </r>
       <r>    4.4061    1.0000 </r>
       <r>    4.4105    1.0000 </r>
       <r>    4.4148    1.0000 </r>
       <r>    4.5594    1.0000 </r>
       <r>    4.5641    1.0000 </r>
       <r>    4.8622    1.0000 </r>
       <r>    4.8688    1.0000 </r>
       <r>    4.8713    1.0000 </r>
       <r>    5.3448    1.0000 </r>
       <r>    5.3501    1.0000 </r>
       <r>    6.5592    0.0000 </r>
       <r>    6.5611    0.0000 </r>
       <r>    6.5650    0.0000 </r>
       <r>    6.9996    0.0000 </r>
       <r>    7.0036    0.0000 </r>
       <r>    7.0079    0.0000 </r>
       <r>    7.2323    0.0000 </r>
       <r>    7.4863    0.0000 </r>
       <r>    7.4883    0.0000 </r>
       <r>    7.4928    0.0000 </r>
       <r>    7.6163    0.0000 </r>
       <r>    7.6222    0.0000 </r>
       <r>    7.6241    0.0000 </r>
       <r>    7.7770    0.0000 </r>
       <r>    7.7792    0.0000 </r>
       <r>    7.7819    0.0000 </r>
       <r>    7.7986    0.0000 </r>
       <r>    7.7999    0.0000 </r>
       <r>    7.8032    0.0000 </r>
       <r>    8.0247    0.0000 </r>
       <r>    8.0289    0.0000 </r>
       <r>    8.0312    0.0000 </r>
       <r>    8.0337    0.0000 </r>
       <r>    8.0356    0.0000 </r>
       <r>    8.0389    0.0000 </r>
       <r>    8.0794    0.0000 </r>
       <r>    8.2925    0.0000 </r>
       <r>    8.2944    0.0000 </r>
       <r>    8.2974    0.0000 </r>
       <r>    8.4945    0.0000 </r>
       <r>    8.4980    0.0000 </r>
       <r>    8.5023    0.0000 </r>
       <r>    8.5059    0.0000 </r>
       <r>    8.5091    0.0000 </r>
       <r>    8.5144    0.0000 </r>
       <r>    8.5401    0.0000 </r>
      </set>
     </set>
    </set>
   </array>
  </eigenvalues>
  <separator name="orbital magnetization" >
   <v name="MAGDIPOLOUT">      0.00000000      0.00000000      0.00000000</v>
  </separator>
  <dos>
   <i name="efermi">      5.59631696 </i>
   <total>
    <array>
     <dimension dim="1">gridpoints</dimension>
     <dimension dim="2">spin</dimension>
     <field>energy</field>
     <field>total</field>
     <field>integrated</field>
     <set>
      <set comment="spin 1">
       <r>    -6.7201     0.0000     0.0000 </r>
       <r>    -6.6668     0.0000     0.0000 </r>
       <r>    -6.6135     0.0000     0.0000 </r>
       <r>    -6.5602     0.0000     0.0000 </r>
       <r>    -6.5069     0.0000     0.0000 </r>
       <r>    -6.4536     0.0000     0.0000 </r>
       <r>    -6.4003     0.0000     0.0000 </r>
       <r>    -6.3470     0.0000     0.0000 </r>
       <r>    -6.2937     0.0000     0.0000 </r>
       <r>    -6.2404     0.0000     0.0000 </r>
       <r>    -6.1871     0.0000     0.0000 </r>
       <r>    -6.1338     0.0013     0.0001 </r>
       <r>    -6.0805     0.2530     0.0136 </r>
       <r>    -6.0272     6.0579     0.3365 </r>
       <r>    -5.9738    20.2387     1.4153 </r>
       <r>    -5.9205    10.2203     1.9600 </r>
       <r>    -5.8672     0.7428     1.9996 </r>
       <r>    -5.8139     0.0069     2.0000 </r>
       <r>    -5.7606     0.0000     2.0000 </r>
       <r>    -5.7073     0.0000     2.0000 </r>
       <r>    -5.6540     0.0000     2.0000 </r>
       <r>    -5.6007     0.0072     2.0004 </r>
       <r>    -5.5474     1.1090     2.0595 </r>
       <r>    -5.4941    21.8532     3.2243 </r>
       <r>    -5.4408    61.4738     6.5011 </r>
       <r>    -5.3875    26.4625     7.9116 </r>
       <r>    -5.3342     1.6444     7.9993 </r>
       <r>    -5.2809     0.0131     8.0000 </r>
       <r>    -5.2276     0.0000     8.0000 </r>
       <r>    -5.1743     0.0000     8.0000 </r>
       <r>    -5.1210     0.0007     8.0000 </r>
       <r>    -5.0677     0.2233     8.0119 </r>
       <r>    -5.0144     9.2535     8.5052 </r>
       <r>    -4.9611    52.4002    11.2983 </r>
       <r>    -4.9078    44.8503    13.6890 </r>
       <r>    -4.8545     5.7367    13.9948 </r>
       <r>    -4.8012     0.0983    14.0000 </r>
       <r>    -4.7479     0.0002    14.0000 </r>
       <r>    -4.6946     0.0001    14.0000 </r>
       <r>    -4.6413     0.0385    14.0021 </r>
       <r>    -4.5880     2.1253    14.1153 </r>
       <r>    -4.5347    15.8102    14.9581 </r>
       <r>    -4.4814    26.1864    16.3539 </r>
       <r>    -4.4280    55.1178    19.2919 </r>
       <r>    -4.3747    44.9560    21.6882 </r>
       <r>    -4.3214     5.7512    21.9947 </r>
       <r>    -4.2681     0.0987    22.0000 </r>
       <r>    -4.2148     0.0002    22.0000 </r>
       <r>    -4.1615     0.0056    22.0003 </r>
       <r>    -4.1082     1.1513    22.0617 </r>
       <r>    -4.0549    30.5542    23.6903 </r>
       <r>    -4.0016   117.0611    29.9301 </r>
       <r>    -3.9483    70.0233    33.6625 </r>
       <r>    -3.8950     8.8713    34.1354 </r>
       <r>    -3.8417    32.5898    35.8726 </r>
       <r>    -3.7884    59.8755    39.0641 </r>
       <r>    -3.7351    16.8822    39.9640 </r>
       <r>    -3.6818     0.6719    39.9998 </r>
       <r>    -3.6285     0.0034    40.0000 </r>
       <r>    -3.5752     0.0000    40.0000 </r>
       <r>    -3.5219     0.0000    40.0000 </r>
       <r>    -3.4686     0.0044    40.0002 </r>
       <r>    -3.4153     0.8060    40.0432 </r>
       <r>    -3.3620    18.5409    41.0315 </r>
       <r>    -3.3087    60.5934    44.2613 </r>
       <r>    -3.2554    30.3736    45.8803 </r>
       <r>    -3.2021     2.2238    45.9989 </r>
       <r>    -3.1488     0.0212    46.0000 </r>
       <r>    -3.0955     0.0070    46.0004 </r>
       <r>    -3.0422     1.0893    46.0584 </r>
       <r>    -2.9889    21.6095    47.2103 </r>
       <r>    -2.9356    61.3893    50.4826 </r>
       <r>    -2.8823    27.9418    51.9719 </r>
       <r>    -2.8289    32.6604    53.7129 </r>
       <r>    -2.7756   117.4661    59.9742 </r>
       <r>    -2.7223    69.3298    63.6697 </r>
       <r>    -2.6690     6.1242    63.9961 </r>
       <r>    -2.6157     0.0722    64.0000 </r>
       <r>    -2.5624     0.0001    64.0000 </r>
       <r>    -2.5091     0.0000    64.0000 </r>
       <r>    -2.4558     0.0000    64.0000 </r>
       <r>    -2.4025     0.0000    64.0000 </r>
       <r>    -2.3492     0.0000    64.0000 </r>
       <r>    -2.2959     0.0000    64.0000 </r>
       <r>    -2.2426     0.0000    64.0000 </r>
       <r>    -2.1893     0.0000    64.0000 </r>
       <r>    -2.1360     0.0000    64.0000 </r>
       <r>    -2.0827     0.0000    64.0000 </r>
       <r>    -2.0294     0.0000    64.0000 </r>
       <r>    -1.9761     0.0000    64.0000 </r>
       <r>    -1.9228     0.0000    64.0000 </r>
       <r>    -1.8695     0.0000    64.0000 </r>
       <r>    -1.8162     0.0000    64.0000 </r>
       <r>    -1.7629     0.0000    64.0000 </r>
       <r>    -1.7096     0.0000    64.0000 </r>
       <r>    -1.6563     0.0000    64.0000 </r>
       <r>    -1.6030     0.0000    64.0000 </r>
       <r>    -1.5497     0.0000    64.0000 </r>
       <r>    -1.4964     0.0000    64.0000 </r>
       <r>    -1.4431     0.0000    64.0000 </r>
       <r>    -1.3898     0.0090    64.0005 </r>
       <r>    -1.3365     1.5909    64.0853 </r>
       <r>    -1.2832    36.4037    66.0257 </r>
       <r>    -1.2298   121.8336    72.5199 </r>
       <r>    -1.1765    87.0982    77.1625 </r>
       <r>    -1.1232    66.8768    80.7272 </r>
       <r>    -1.0699    39.2153    82.8176 </r>
       <r>    -1.0166    63.3637    86.1951 </r>
       <r>    -0.9633    67.1252    89.7731 </r>
       <r>    -0.9100    62.0332    93.0796 </r>
       <r>    -0.8567    16.5919    93.9640 </r>
       <r>    -0.8034     0.6711    93.9998 </r>
       <r>    -0.7501     0.0035    94.0000 </r>
       <r>    -0.6968     0.0000    94.0000 </r>
       <r>    -0.6435     0.0000    94.0000 </r>
       <r>    -0.5902     0.0000    94.0000 </r>
       <r>    -0.5369     0.0000    94.0000 </r>
       <r>    -0.4836     0.0000    94.0000 </r>
       <r>    -0.4303     0.0000    94.0000 </r>
       <r>    -0.3770     0.0035    94.0002 </r>
       <r>    -0.3237     0.4774    94.0256 </r>
       <r>    -0.2704     8.5012    94.4788 </r>
       <r>    -0.2171    32.8485    96.2297 </r>
       <r>    -0.1638    98.6355   101.4873 </r>
       <r>    -0.1105   103.5786   107.0084 </r>
       <r>    -0.0572    18.1530   107.9760 </r>
       <r>    -0.0039     0.4483   107.9999 </r>
       <r>     0.0494     0.0014   108.0000 </r>
       <r>     0.1027     0.0000   108.0000 </r>
       <r>     0.1560     0.0000   108.0000 </r>
       <r>     0.2093     0.0000   108.0000 </r>
       <r>     0.2626     0.0000   108.0000 </r>
       <r>     0.3160     0.0000   108.0000 </r>
       <r>     0.3693     0.0000   108.0000 </r>
       <r>     0.4226     0.0000   108.0000 </r>
       <r>     0.4759     0.0000   108.0000 </r>
       <r>     0.5292     0.0000   108.0000 </r>
       <r>     0.5825     0.0121   108.0006 </r>
       <r>     0.6358     1.5357   108.0825 </r>
       <r>     0.6891    25.4134   109.4371 </r>
       <r>     0.7424    61.3935   112.7096 </r>
       <r>     0.7957    22.9568   113.9333 </r>
       <r>     0.8490     1.2430   113.9995 </r>
       <r>     0.9023     0.0112   114.0001 </r>
       <r>     0.9556     0.5532   114.0296 </r>
       <r>     1.0089    15.2854   114.8444 </r>
       <r>     1.0622    59.0112   117.9899 </r>
       <r>     1.1155    34.6884   119.8389 </r>
       <r>     1.1688     2.9888   119.9982 </r>
       <r>     1.2221     0.0336   120.0000 </r>
       <r>     1.2754     0.0000   120.0000 </r>
       <r>     1.3287     0.0000   120.0000 </r>
       <r>     1.3820     0.0000   120.0000 </r>
       <r>     1.4353     0.0000   120.0000 </r>
       <r>     1.4886     0.0002   120.0000 </r>
       <r>     1.5419     0.1337   120.0071 </r>
       <r>     1.5952     9.1412   120.4944 </r>
       <r>     1.6485    85.4581   125.0496 </r>
       <r>     1.7018   145.9243   132.8279 </r>
       <r>     1.7551    81.1452   137.1532 </r>
       <r>     1.8084    15.3676   137.9723 </r>
       <r>     1.8617     0.5171   137.9999 </r>
       <r>     1.9151     0.0022   138.0000 </r>
       <r>     1.9684     0.0000   138.0000 </r>
       <r>     2.0217     0.0000   138.0000 </r>
       <r>     2.0750     0.0000   138.0000 </r>
       <r>     2.1283     0.0047   138.0002 </r>
       <r>     2.1816     0.8417   138.0451 </r>
       <r>     2.2349    19.0883   139.0626 </r>
       <r>     2.2882    63.1891   142.4308 </r>
       <r>     2.3415    74.5063   146.4022 </r>
       <r>     2.3948   145.8531   154.1767 </r>
       <r>     2.4481   114.3096   160.2698 </r>
       <r>     2.5014    30.6555   161.9038 </r>
       <r>     2.5547     1.7900   161.9992 </r>
       <r>     2.6080     0.0549   162.0021 </r>
       <r>     2.6613     4.2810   162.2303 </r>
       <r>     2.7146    59.5431   165.4042 </r>
       <r>     2.7679   121.4135   171.8759 </r>
       <r>     2.8212    38.1289   173.9083 </r>
       <r>     2.8745     1.7390   174.0010 </r>
       <r>     2.9278     3.3219   174.1781 </r>
       <r>     2.9811    51.2553   176.9102 </r>
       <r>     3.0344   121.2510   183.3733 </r>
       <r>     3.0877    46.5323   185.8536 </r>
       <r>     3.1410     2.7250   185.9988 </r>
       <r>     3.1943     0.0218   186.0000 </r>
       <r>     3.2476     0.0799   186.0043 </r>
       <r>     3.3009     5.8405   186.3156 </r>
       <r>     3.3542    63.1606   189.6823 </r>
       <r>     3.4075   121.2273   196.1441 </r>
       <r>     3.4609    81.7292   200.5005 </r>
       <r>     3.5142    55.5071   203.4592 </r>
       <r>     3.5675     9.8951   203.9867 </r>
       <r>     3.6208     0.3328   204.0044 </r>
       <r>     3.6741     6.8029   204.3670 </r>
       <r>     3.7274    79.0552   208.5809 </r>
       <r>     3.7807   165.0076   217.3764 </r>
       <r>     3.8340    78.1571   221.5424 </r>
       <r>     3.8873     8.4285   221.9917 </r>
       <r>     3.9406     0.2463   222.0048 </r>
       <r>     3.9939     3.6371   222.1987 </r>
       <r>     4.0472    26.3952   223.6057 </r>
       <r>     4.1005    65.1518   227.0785 </r>
       <r>     4.1538    48.2831   229.6521 </r>
       <r>     4.2071     6.4176   229.9942 </r>
       <r>     4.2604     1.4130   230.0695 </r>
       <r>     4.3137    24.1146   231.3549 </r>
       <r>     4.3670    76.6043   235.4382 </r>
       <r>     4.4203    83.0205   239.8635 </r>
       <r>     4.4736    37.2544   241.8492 </r>
       <r>     4.5269    14.4570   242.6199 </r>
       <r>     4.5802    39.9259   244.7480 </r>
       <r>     4.6335    21.7310   245.9064 </r>
       <r>     4.6868     1.7382   245.9990 </r>
       <r>     4.7401     0.0329   246.0008 </r>
       <r>     4.7934     1.7469   246.0939 </r>
       <r>     4.8467    27.0496   247.5357 </r>
       <r>     4.9000    61.2489   250.8005 </r>
       <r>     4.9533    21.4184   251.9422 </r>
       <r>     5.0066     1.0777   251.9996 </r>
       <r>     5.0600     0.0069   252.0000 </r>
       <r>     5.1133     0.0000   252.0000 </r>
       <r>     5.1666     0.0000   252.0000 </r>
       <r>     5.2199     0.0099   252.0005 </r>
       <r>     5.2732     1.1719   252.0630 </r>
       <r>     5.3265    18.0914   253.0273 </r>
       <r>     5.3798    40.8174   255.2030 </r>
       <r>     5.4331    14.2317   255.9616 </r>
       <r>     5.4864     0.7152   255.9998 </r>
       <r>     5.5397     0.0046   256.0000 </r>
       <r>     5.5930     0.0000   256.0000 </r>
       <r>     5.6463     0.0000   256.0000 </r>
       <r>     5.6996     0.0000   256.0000 </r>
       <r>     5.7529     0.0000   256.0000 </r>
       <r>     5.8062     0.0000   256.0000 </r>
       <r>     5.8595     0.0000   256.0000 </r>
       <r>     5.9128     0.0000   256.0000 </r>
       <r>     5.9661     0.0000   256.0000 </r>
       <r>     6.0194     0.0000   256.0000 </r>
       <r>     6.0727     0.0000   256.0000 </r>
       <r>     6.1260     0.0000   256.0000 </r>
       <r>     6.1793     0.0000   256.0000 </r>
       <r>     6.2326     0.0000   256.0000 </r>
       <r>     6.2859     0.0000   256.0000 </r>
       <r>     6.3392     0.0000   256.0000 </r>
       <r>     6.3925     0.0001   256.0000 </r>
       <r>     6.4458     0.0517   256.0028 </r>
       <r>     6.4991     3.8952   256.2104 </r>
       <r>     6.5524    38.7089   258.2737 </r>
       <r>     6.6057    56.8360   261.3033 </r>
       <r>     6.6591    12.6781   261.9790 </r>
       <r>     6.7124     0.3918   261.9999 </r>
       <r>     6.7657     0.0015   262.0000 </r>
       <r>     6.8190     0.0000   262.0000 </r>
       <r>     6.8723     0.0111   262.0006 </r>
       <r>     6.9256     1.4719   262.0790 </r>
       <r>     6.9789    25.0547   263.4146 </r>
       <r>     7.0322    61.5567   266.6957 </r>
       <r>     7.0855    23.2047   267.9326 </r>
       <r>     7.1388     1.3919   268.0068 </r>
       <r>     7.1921     4.3601   268.2392 </r>
       <r>     7.2454    19.1255   269.2587 </r>
       <r>     7.2987    12.6659   269.9338 </r>
       <r>     7.3520     1.2315   269.9995 </r>
       <r>     7.4053     0.9183   270.0484 </r>
       <r>     7.4586    19.6916   271.0980 </r>
       <r>     7.5119    61.1515   274.3576 </r>
       <r>     7.5652    35.8940   276.2709 </r>
       <r>     7.6185    49.8869   278.9300 </r>
       <r>     7.6718    49.8055   281.5848 </r>
       <r>     7.7251    16.3218   282.4548 </r>
       <r>     7.7784    75.2499   286.4659 </r>
       <r>     7.8317   111.3440   292.4009 </r>
       <r>     7.8850    28.8155   293.9369 </r>
       <r>     7.9383     2.2826   294.0586 </r>
       <r>     7.9916    30.2133   295.6690 </r>
       <r>     8.0449   122.3464   302.1905 </r>
       <r>     8.0982    90.5597   307.0176 </r>
       <r>     8.1515    17.4527   307.9479 </r>
       <r>     8.2049     1.5840   308.0324 </r>
       <r>     8.2582    16.2001   308.8959 </r>
       <r>     8.3115    59.6451   312.0752 </r>
       <r>     8.3648    33.3762   313.8542 </r>
       <r>     8.4181     4.5881   314.0988 </r>
       <r>     8.4714    39.3933   316.1986 </r>
       <r>     8.5247   130.5965   323.1598 </r>
       <r>     8.5780    80.3474   327.4426 </r>
       <r>     8.6313    10.1992   327.9863 </r>
       <r>     8.6846     0.2569   327.9999 </r>
       <r>     8.7379     0.0010   328.0000 </r>
       <r>     8.7912     0.0000   328.0000 </r>
       <r>     8.8445     0.0000   328.0000 </r>
       <r>     8.8978     0.0000   328.0000 </r>
       <r>     8.9511     0.0000   328.0000 </r>
       <r>     9.0044     0.0000   328.0000 </r>
       <r>     9.0577     0.0000   328.0000 </r>
       <r>     9.1110     0.0000   328.0000 </r>
       <r>     9.1643     0.0000   328.0000 </r>
       <r>     9.2176     0.0000   328.0000 </r>
       <r>     9.2709     0.0000   328.0000 </r>
      </set>
     </set>
    </array>
   </total>
  </dos>
 </calculation>
 <structure name="finalpos" >
  <crystal>
   <varray name="basis" >
    <v>      10.93252578       0.00000000       0.00000000 </v>
    <v>       0.00000000      10.93252578       0.00000000 </v>
    <v>       0.00000000       0.00000000      10.93252578 </v>
   </varray>
   <i name="volume">   1306.65679237 </i>
   <varray name="rec_basis" >
    <v>       0.09147017       0.00000000       0.00000000 </v>
    <v>       0.00000000       0.09147017       0.00000000 </v>
    <v>       0.00000000       0.00000000       0.09147017 </v>
   </varray>
  </crystal>
  <varray name="positions" >
   <v>       0.44024411       0.43750000       0.43750000 </v>
   <v>       0.93750000       0.43750000       0.43750000 </v>
   <v>       0.43750000       0.93750000       0.43750000 </v>
   <v>       0.93750000       0.93750000       0.43750000 </v>
   <v>       0.43750000       0.43750000       0.93750000 </v>
   <v>       0.93750000       0.43750000       0.93750000 </v>
   <v>       0.43750000       0.93750000       0.93750000 </v>
   <v>       0.93750000       0.93750000       0.93750000 </v>
   <v>       0.43750000       0.18750000       0.18750000 </v>
   <v>       0.93750000       0.18750000       0.18750000 </v>
   <v>       0.43750000       0.68750000       0.18750000 </v>
   <v>       0.93750000       0.68750000       0.18750000 </v>
   <v>       0.43750000       0.18750000       0.68750000 </v>
   <v>       0.93750000       0.18750000       0.68750000 </v>
   <v>       0.43750000       0.68750000       0.68750000 </v>
   <v>       0.93750000       0.68750000       0.68750000 </v>
   <v>       0.18750000       0.43750000       0.18750000 </v>
   <v>       0.68750000       0.43750000       0.18750000 </v>
   <v>       0.18750000       0.94024411       0.18750000 </v>
   <v>       0.68750000       0.93750000       0.18750000 </v>
   <v>       0.18750000       0.43750000       0.68750000 </v>
   <v>       0.68750000       0.43750000       0.68750000 </v>
   <v>       0.18750000       0.93750000       0.68750000 </v>
   <v>       0.68750000       0.93750000       0.68750000 </v>
   <v>       0.18750000       0.18750000       0.43750000 </v>
   <v>       0.68750000       0.18750000       0.43750000 </v>
   <v>       0.18750000       0.68750000       0.43750000 </v>
   <v>       0.68750000       0.68750000       0.43750000 </v>
   <v>       0.18750000       0.18750000       0.93750000 </v>
   <v>       0.68750000       0.18750000       0.93750000 </v>
   <v>       0.18750000       0.68750000       0.93750000 </v>
   <v>       0.68750000       0.68750000       0.93750000 </v>
   <v>       0.06250000       0.06250000       0.06250000 </v>
   <v>       0.56250000       0.06250000       0.06250000 </v>
   <v>       0.06250000       0.56250000       0.06250000 </v>
   <v>       0.56250000       0.56250000       0.06250000 </v>
   <v>       0.06250000       0.06250000       0.56250000 </v>
   <v>       0.56250000       0.06250000       0.56250000 </v>
   <v>       0.06250000       0.56250000       0.56250000 </v>
   <v>       0.56250000       0.56250000       0.56250000 </v>
   <v>       0.06250000       0.31250000       0.31250000 </v>
   <v>       0.56250000       0.31250000       0.31250000 </v>
   <v>       0.06250000       0.81250000       0.31250000 </v>
   <v>       0.56250000       0.81250000       0.31250000 </v>
   <v>       0.06250000       0.31250000       0.81250000 </v>
   <v>       0.56250000       0.31250000       0.81250000 </v>
   <v>       0.06250000       0.81250000       0.81250000 </v>
   <v>       0.56250000       0.81250000       0.81250000 </v>
   <v>       0.31250000       0.06250000       0.31250000 </v>
   <v>       0.81250000       0.06250000       0.31250000 </v>
   <v>       0.31250000       0.56250000       0.31250000 </v>
   <v>       0.81250000       0.56250000       0.31250000 </v>
   <v>       0.31250000       0.06250000       0.81250000 </v>
   <v>       0.81250000       0.06250000       0.81250000 </v>
   <v>       0.31250000       0.56250000       0.81250000 </v>
   <v>       0.81250000       0.56250000       0.81250000 </v>
   <v>       0.31250000       0.31250000       0.06250000 </v>
   <v>       0.81250000       0.31250000       0.06250000 </v>
   <v>       0.31250000       0.81250000       0.06250000 </v>
   <v>       0.81250000       0.81250000       0.06250000 </v>
   <v>       0.31250000       0.31250000       0.56250000 </v>
   <v>       0.81250000       0.31250000       0.56250000 </v>
   <v>       0.31250000       0.81250000       0.56250000 </v>
   <v>       0.81250000       0.81250000       0.56250000 </v>
  </varray>
 </structure>
</modeling>
