<?xml version="1.0" encoding="ISO-8859-1"?>
<modeling>
 <generator>
  <i name="program" type="string">vasp </i>
  <i name="version" type="string">5.4.1  </i>
  <i name="subversion" type="string">05Feb16 (build Mar 26 2016 11:58:25) complex                          parallel </i>
  <i name="platform" type="string">IFC91_ompi </i>
  <i name="date" type="string">2017 03 12 </i>
  <i name="time" type="string">12:17:56 </i>
 </generator>
 <incar>
  <i type="string" name="PREC">accurate</i>
  <i type="int" name="IALGO">    38</i>
  <i type="logical" name="ADDGRID"> T  </i>
  <i type="int" name="NELMIN">     5</i>
  <i type="int" name="IBRION">    -1</i>
  <i name="EDIFF">      0.00000001</i>
  <i name="ENCUT">    300.00000000</i>
  <i type="logical" name="LREAL"> F  </i>
  <i type="int" name="ISMEAR">     0</i>
  <i name="SIGMA">      0.05000000</i>
  <i type="logical" name="LWAVE"> F  </i>
  <i type="logical" name="LCHARG"> F  </i>
  <v type="int" name="KPOINT_BSE">    -1     0     0     0</v>
 </incar>
 <kpoints>
  <generation param="Monkhorst-Pack">
   <v type="int" name="divisions">       2        2        2 </v>
   <v name="usershift">      0.00000000       0.00000000       0.00000000 </v>
   <v name="genvec1">      0.50000000       0.00000000       0.00000000 </v>
   <v name="genvec2">      0.00000000       0.50000000       0.00000000 </v>
   <v name="genvec3">      0.00000000       0.00000000       0.50000000 </v>
   <v name="shift">      0.50000000       0.50000000       0.50000000 </v>
  </generation>
  <varray name="kpointlist" >
   <v>       0.25000000       0.25000000       0.25000000 </v>
   <v>      -0.25000000       0.25000000       0.25000000 </v>
   <v>       0.25000000      -0.25000000       0.25000000 </v>
   <v>      -0.25000000      -0.25000000       0.25000000 </v>
  </varray>
  <varray name="weights" >
   <v>       0.25000000 </v>
   <v>       0.25000000 </v>
   <v>       0.25000000 </v>
   <v>       0.25000000 </v>
  </varray>
 </kpoints>
 <parameters>
  <separator name="general" >
   <i type="string" name="SYSTEM">unknown system</i>
   <i type="logical" name="LCOMPAT"> F  </i>
  </separator>
  <separator name="electronic" >
   <i type="string" name="PREC">accura</i>
   <i name="ENMAX">    300.00000000</i>
   <i name="ENAUG">    322.06900000</i>
   <i name="EDIFF">      0.00000001</i>
   <i type="int" name="IALGO">    38</i>
   <i type="int" name="IWAVPR">    10</i>
   <i type="int" name="NBANDS">   164</i>
   <i name="NELECT">    256.00000000</i>
   <i type="int" name="TURBO">     0</i>
   <i type="int" name="IRESTART">     0</i>
   <i type="int" name="NREBOOT">     0</i>
   <i type="int" name="NMIN">     0</i>
   <i name="EREF">      0.00000000</i>
   <separator name="electronic smearing" >
    <i type="int" name="ISMEAR">     0</i>
    <i name="SIGMA">      0.05000000</i>
    <i name="KSPACING">      0.50000000</i>
    <i type="logical" name="KGAMMA"> T  </i>
   </separator>
   <separator name="electronic projectors" >
    <i type="logical" name="LREAL"> F  </i>
    <v name="ROPT">      0.00000000</v>
    <i type="int" name="LMAXPAW">  -100</i>
    <i type="int" name="LMAXMIX">     2</i>
    <i type="logical" name="NLSPLINE"> F  </i>
   </separator>
   <separator name="electronic startup" >
    <i type="int" name="ISTART">     0</i>
    <i type="int" name="ICHARG">     2</i>
    <i type="int" name="INIWAV">     1</i>
   </separator>
   <separator name="electronic spin" >
    <i type="int" name="ISPIN">     1</i>
    <i type="logical" name="LNONCOLLINEAR"> F  </i>
    <v name="MAGMOM">      1.00000000      1.00000000      1.00000000      1.00000000      1.00000000      1.00000000      1.00000000      1.00000000      1.00000000      1.00000000      1.00000000      1.00000000      1.00000000      1.00000000      1.00000000      1.00000000      1.00000000      1.00000000      1.00000000      1.00000000
      1.00000000      1.00000000      1.00000000      1.00000000      1.00000000      1.00000000      1.00000000      1.00000000      1.00000000      1.00000000      1.00000000      1.00000000      1.00000000      1.00000000      1.00000000      1.00000000      1.00000000      1.00000000      1.00000000      1.00000000
      1.00000000      1.00000000      1.00000000      1.00000000      1.00000000      1.00000000      1.00000000      1.00000000      1.00000000      1.00000000      1.00000000      1.00000000      1.00000000      1.00000000      1.00000000      1.00000000      1.00000000      1.00000000      1.00000000      1.00000000
      1.00000000      1.00000000      1.00000000      1.00000000</v>
    <i name="NUPDOWN">     -1.00000000</i>
    <i type="logical" name="LSORBIT"> F  </i>
    <v name="SAXIS">      0.00000000      0.00000000      1.00000000</v>
    <i type="logical" name="LSPIRAL"> F  </i>
    <v name="QSPIRAL">      0.00000000      0.00000000      0.00000000</v>
    <i type="logical" name="LZEROZ"> F  </i>
   </separator>
   <separator name="electronic exchange-correlation" >
    <i type="logical" name="LASPH"> F  </i>
    <i type="logical" name="LMETAGGA"> F  </i>
   </separator>
   <separator name="electronic convergence" >
    <i type="int" name="NELM">    60</i>
    <i type="int" name="NELMDL">    -5</i>
    <i type="int" name="NELMIN">     5</i>
    <i name="ENINI">    300.00000000</i>
    <separator name="electronic convergence detail" >
     <i type="logical" name="LDIAG"> T  </i>
     <i type="logical" name="LSUBROT"> F  </i>
     <i name="WEIMIN">      0.00000000</i>
     <i name="EBREAK">      0.00000000</i>
     <i name="DEPER">      0.30000000</i>
     <i type="int" name="NRMM">     4</i>
     <i name="TIME">      0.40000000</i>
    </separator>
   </separator>
   <separator name="electronic mixer" >
    <i name="AMIX">      0.40000000</i>
    <i name="BMIX">      1.00000000</i>
    <i name="AMIN">      0.10000000</i>
    <i name="AMIX_MAG">      1.60000000</i>
    <i name="BMIX_MAG">      1.00000000</i>
    <separator name="electronic mixer details" >
     <i type="int" name="IMIX">     4</i>
     <i type="logical" name="MIXFIRST"> F  </i>
     <i type="int" name="MAXMIX">   -45</i>
     <i name="WC">    100.00000000</i>
     <i type="int" name="INIMIX">     1</i>
     <i type="int" name="MIXPRE">     1</i>
     <i type="int" name="MREMOVE">     5</i>
    </separator>
   </separator>
   <separator name="electronic dipolcorrection" >
    <i type="logical" name="LDIPOL"> F  </i>
    <i type="logical" name="LMONO"> F  </i>
    <i type="int" name="IDIPOL">     0</i>
    <i name="EPSILON">      1.00000000</i>
    <v name="DIPOL">   -100.00000000   -100.00000000   -100.00000000</v>
    <i name="EFIELD">      0.00000000</i>
   </separator>
  </separator>
  <separator name="grids" >
   <i type="int" name="NGX">    64</i>
   <i type="int" name="NGY">    64</i>
   <i type="int" name="NGZ">    64</i>
   <i type="int" name="NGXF">   128</i>
   <i type="int" name="NGYF">   128</i>
   <i type="int" name="NGZF">   128</i>
   <i type="logical" name="ADDGRID"> T  </i>
  </separator>
  <separator name="ionic" >
   <i type="int" name="NSW">     0</i>
   <i type="int" name="IBRION">    -1</i>
   <i type="int" name="ISIF">     2</i>
   <i name="PSTRESS">      0.00000000</i>
   <i name="EDIFFG">      0.00000010</i>
   <i type="int" name="NFREE">     0</i>
   <i name="POTIM">      0.50000000</i>
   <i name="SMASS">     -3.00000000</i>
   <i name="SCALEE">      1.00000000</i>
  </separator>
  <separator name="ionic md" >
   <i name="TEBEG">      0.00010000</i>
   <i name="TEEND">      0.00010000</i>
   <i type="int" name="NBLOCK">     1</i>
   <i type="int" name="KBLOCK">     1</i>
   <i type="int" name="NPACO">   256</i>
   <i name="APACO">     16.00000000</i>
  </separator>
  <separator name="symmetry" >
   <i type="int" name="ISYM">     2</i>
   <i name="SYMPREC">      0.00001000</i>
  </separator>
  <separator name="dos" >
   <i type="logical" name="LORBIT"> F  </i>
   <v name="RWIGS">     -1.00000000</v>
   <i type="int" name="NEDOS">   301</i>
   <i name="EMIN">     10.00000000</i>
   <i name="EMAX">    -10.00000000</i>
   <i name="EFERMI">      0.00000000</i>
  </separator>
  <separator name="writing" >
   <i type="int" name="NWRITE">     2</i>
   <i type="logical" name="LWAVE"> F  </i>
   <i type="logical" name="LCHARG"> F  </i>
   <i type="logical" name="LPARD"> F  </i>
   <i type="logical" name="LVTOT"> F  </i>
   <i type="logical" name="LVHAR"> F  </i>
   <i type="logical" name="LELF"> F  </i>
   <i type="logical" name="LOPTICS"> F  </i>
   <v name="STM">      0.00000000      0.00000000      0.00000000      0.00000000      0.00000000      0.00000000      0.00000000</v>
  </separator>
  <separator name="performance" >
   <i type="int" name="NPAR">     4</i>
   <i type="int" name="NSIM">     4</i>
   <i type="int" name="NBLK">    -1</i>
   <i type="logical" name="LPLANE"> T  </i>
   <i type="logical" name="LSCALAPACK"> T  </i>
   <i type="logical" name="LSCAAWARE"> F  </i>
   <i type="logical" name="LSCALU"> F  </i>
   <i type="logical" name="LASYNC"> F  </i>
   <i type="logical" name="LORBITALREAL"> F  </i>
  </separator>
  <separator name="miscellaneous" >
   <i type="int" name="IDIOT">     3</i>
   <i type="logical" name="LMUSIC"> F  </i>
   <v name="POMASS">     28.08500000</v>
   <v name="DARWINR">      0.00000000</v>
   <v name="DARWINV">      1.00000000</v>
   <i type="logical" name="LCORR"> T  </i>
  </separator>
  <i type="logical" name="GGA_COMPAT"> T  </i>
  <i type="logical" name="LBERRY"> F  </i>
  <i type="int" name="ICORELEVEL">     0</i>
  <i type="logical" name="LDAU"> F  </i>
  <i type="int" name="I_CONSTRAINED_M">     0</i>
  <separator name="electronic exchange-correlation" >
   <i type="string" name="GGA">--</i>
   <i type="int" name="VOSKOWN">     0</i>
   <i type="logical" name="LHFCALC"> F  </i>
   <i type="string" name="PRECFOCK"></i>
   <i type="logical" name="LSYMGRAD"> F  </i>
   <i type="logical" name="LHFONE"> F  </i>
   <i type="logical" name="LRHFCALC"> F  </i>
   <i type="logical" name="LTHOMAS"> F  </i>
   <i type="logical" name="LMODELHF"> F  </i>
   <i name="ENCUT4O">     -1.00000000</i>
   <i type="int" name="EXXOEP">     0</i>
   <i type="int" name="FOURORBIT">     0</i>
   <i name="AEXX">      0.00000000</i>
   <i name="HFALPHA">      0.00000000</i>
   <i name="MCALPHA">      0.00000000</i>
   <i name="ALDAX">      1.00000000</i>
   <i name="AGGAX">      1.00000000</i>
   <i name="ALDAC">      1.00000000</i>
   <i name="AGGAC">      1.00000000</i>
   <i type="int" name="NKREDX">     1</i>
   <i type="int" name="NKREDY">     1</i>
   <i type="int" name="NKREDZ">     1</i>
   <i type="logical" name="SHIFTRED"> F  </i>
   <i type="logical" name="ODDONLY"> F  </i>
   <i type="logical" name="EVENONLY"> F  </i>
   <i type="int" name="LMAXFOCK">     0</i>
   <i type="int" name="NMAXFOCKAE">     0</i>
   <i type="logical" name="LFOCKAEDFT"> F  </i>
   <i name="HFSCREEN">      0.00000000</i>
   <i name="HFSCREENC">      0.00000000</i>
   <i type="int" name="NBANDSGWLOW">     0</i>
  </separator>
  <separator name="vdW DFT" >
   <i type="logical" name="LUSE_VDW"> F  </i>
   <i name="Zab_VDW">     -0.84910000</i>
   <i name="PARAM1">      0.12340000</i>
   <i name="PARAM2">      1.00000000</i>
   <i name="PARAM3">      0.00000000</i>
  </separator>
  <separator name="model GW" >
   <i type="int" name="MODEL_GW">     0</i>
   <i name="MODEL_EPS0">     12.24990743</i>
   <i name="MODEL_ALPHA">      1.00000000</i>
  </separator>
  <separator name="linear response parameters" >
   <i type="logical" name="LEPSILON"> F  </i>
   <i type="logical" name="LRPA"> F  </i>
   <i type="logical" name="LNABLA"> F  </i>
   <i type="logical" name="LVEL"> F  </i>
   <i type="int" name="KINTER">     0</i>
   <i name="CSHIFT">      0.10000000</i>
   <i name="OMEGAMAX">     -1.00000000</i>
   <i name="DEG_THRESHOLD">      0.00200000</i>
  </separator>
  <separator name="orbital magnetization" >
   <i type="logical" name="NUCIND"> F  </i>
   <v name="MAGPOS">      0.00000000      0.00000000      0.00000000</v>
   <i type="logical" name="LNICSALL"> T  </i>
   <i type="logical" name="ORBITALMAG"> F  </i>
   <i type="logical" name="LMAGBLOCH"> F  </i>
   <i type="logical" name="LCHIMAG"> F  </i>
   <i type="logical" name="LGAUGE"> T  </i>
   <i type="int" name="MAGATOM">     0</i>
   <v name="MAGDIPOL">      0.00000000      0.00000000      0.00000000</v>
   <v name="AVECCONST">      0.00000000      0.00000000      0.00000000</v>
  </separator>
  <separator name="response functions" >
   <i type="logical" name="LADDER"> F  </i>
   <i type="logical" name="LFXC"> F  </i>
   <i type="logical" name="LHARTREE"> T  </i>
   <i type="int" name="IBSE">     0</i>
   <v type="int" name="KPOINT">    -1     0     0     0</v>
   <i type="logical" name="LTCTE"> F  </i>
   <i type="logical" name="LTETE"> F  </i>
   <i type="logical" name="LTRIPLET"> F  </i>
   <i type="logical" name="LFXCEPS"> F  </i>
   <i type="logical" name="LFXHEG"> F  </i>
   <i type="int" name="NATURALO">     0</i>
   <i type="logical" name="L2ORDER"> F  </i>
   <i type="logical" name="LUSEW"> F  </i>
   <i name="ENCUTGW">     -2.00000000</i>
   <i name="ENCUTGWSOFT">     -2.00000000</i>
   <i name="ENCUTLF">     -1.00000000</i>
   <i type="int" name="LMAXMP2">    -1</i>
   <i name="SCISSOR">      0.00000000</i>
   <i type="int" name="NOMEGA">     0</i>
   <i type="int" name="NOMEGAR">     0</i>
   <i type="int" name="NBANDSGW">    -1</i>
   <i type="int" name="NBANDSO">    -1</i>
   <i type="int" name="NBANDSV">    -1</i>
   <i type="int" name="NELM">     1</i>
   <i type="int" name="NELMHF">     1</i>
   <i type="int" name="DIM">     3</i>
   <i type="int" name="ANTIRES">     0</i>
   <i name="OMEGAMAX">    -30.00000000</i>
   <i name="OMEGAMIN">    -30.00000000</i>
   <i name="OMEGATL">   -200.00000000</i>
   <i type="int" name="OMEGAGRID">     0</i>
   <i name="CSHIFT">     -0.10000000</i>
   <i type="logical" name="SELFENERGY"> F  </i>
   <i type="logical" name="LSPECTRAL"> F  </i>
   <i type="logical" name="LSPECTRALGW"> F  </i>
   <i type="logical" name="LSINGLES"> F  </i>
   <i type="logical" name="LFERMIGW"> F  </i>
   <i type="logical" name="ODDONLYGW"> F  </i>
   <i type="logical" name="EVENONLYGW"> F  </i>
   <i type="int" name="NKREDLFX">     1</i>
   <i type="int" name="NKREDLFY">     1</i>
   <i type="int" name="NKREDLFZ">     1</i>
   <i type="int" name="MAXMEM">  1800</i>
   <i type="int" name="TELESCOPE">     0</i>
   <i type="int" name="TAUPAR">     1</i>
   <i type="int" name="OMEGAPAR">    -1</i>
   <i name="LAMBDA">      1.00000000</i>
  </separator>
  <separator name="External order field" >
   <i name="OFIELD_KAPPA">      0.00000000</i>
   <v name="OFIELD_K">      0.00000000      0.00000000      0.00000000</v>
   <i name="OFIELD_Q6_NEAR">      0.00000000</i>
   <i name="OFIELD_Q6_FAR">      0.00000000</i>
   <i name="OFIELD_A">      0.00000000</i>
  </separator>
 </parameters>
 <atominfo>
  <atoms>      64 </atoms>
  <types>       1 </types>
  <array name="atoms" >
   <dimension dim="1">ion</dimension>
   <field type="string">element</field>
   <field type="int">atomtype</field>
   <set>
    <rc><c>Si</c><c>   1</c></rc>
    <rc><c>Si</c><c>   1</c></rc>
    <rc><c>Si</c><c>   1</c></rc>
    <rc><c>Si</c><c>   1</c></rc>
    <rc><c>Si</c><c>   1</c></rc>
    <rc><c>Si</c><c>   1</c></rc>
    <rc><c>Si</c><c>   1</c></rc>
    <rc><c>Si</c><c>   1</c></rc>
    <rc><c>Si</c><c>   1</c></rc>
    <rc><c>Si</c><c>   1</c></rc>
    <rc><c>Si</c><c>   1</c></rc>
    <rc><c>Si</c><c>   1</c></rc>
    <rc><c>Si</c><c>   1</c></rc>
    <rc><c>Si</c><c>   1</c></rc>
    <rc><c>Si</c><c>   1</c></rc>
    <rc><c>Si</c><c>   1</c></rc>
    <rc><c>Si</c><c>   1</c></rc>
    <rc><c>Si</c><c>   1</c></rc>
    <rc><c>Si</c><c>   1</c></rc>
    <rc><c>Si</c><c>   1</c></rc>
    <rc><c>Si</c><c>   1</c></rc>
    <rc><c>Si</c><c>   1</c></rc>
    <rc><c>Si</c><c>   1</c></rc>
    <rc><c>Si</c><c>   1</c></rc>
    <rc><c>Si</c><c>   1</c></rc>
    <rc><c>Si</c><c>   1</c></rc>
    <rc><c>Si</c><c>   1</c></rc>
    <rc><c>Si</c><c>   1</c></rc>
    <rc><c>Si</c><c>   1</c></rc>
    <rc><c>Si</c><c>   1</c></rc>
    <rc><c>Si</c><c>   1</c></rc>
    <rc><c>Si</c><c>   1</c></rc>
    <rc><c>Si</c><c>   1</c></rc>
    <rc><c>Si</c><c>   1</c></rc>
    <rc><c>Si</c><c>   1</c></rc>
    <rc><c>Si</c><c>   1</c></rc>
    <rc><c>Si</c><c>   1</c></rc>
    <rc><c>Si</c><c>   1</c></rc>
    <rc><c>Si</c><c>   1</c></rc>
    <rc><c>Si</c><c>   1</c></rc>
    <rc><c>Si</c><c>   1</c></rc>
    <rc><c>Si</c><c>   1</c></rc>
    <rc><c>Si</c><c>   1</c></rc>
    <rc><c>Si</c><c>   1</c></rc>
    <rc><c>Si</c><c>   1</c></rc>
    <rc><c>Si</c><c>   1</c></rc>
    <rc><c>Si</c><c>   1</c></rc>
    <rc><c>Si</c><c>   1</c></rc>
    <rc><c>Si</c><c>   1</c></rc>
    <rc><c>Si</c><c>   1</c></rc>
    <rc><c>Si</c><c>   1</c></rc>
    <rc><c>Si</c><c>   1</c></rc>
    <rc><c>Si</c><c>   1</c></rc>
    <rc><c>Si</c><c>   1</c></rc>
    <rc><c>Si</c><c>   1</c></rc>
    <rc><c>Si</c><c>   1</c></rc>
    <rc><c>Si</c><c>   1</c></rc>
    <rc><c>Si</c><c>   1</c></rc>
    <rc><c>Si</c><c>   1</c></rc>
    <rc><c>Si</c><c>   1</c></rc>
    <rc><c>Si</c><c>   1</c></rc>
    <rc><c>Si</c><c>   1</c></rc>
    <rc><c>Si</c><c>   1</c></rc>
    <rc><c>Si</c><c>   1</c></rc>
   </set>
  </array>
  <array name="atomtypes" >
   <dimension dim="1">type</dimension>
   <field type="int">atomspertype</field>
   <field type="string">element</field>
   <field>mass</field>
   <field>valence</field>
   <field type="string">pseudopotential</field>
   <set>
    <rc><c>  64</c><c>Si</c><c>     28.08500000</c><c>      4.00000000</c><c>  PAW_PBE Si 05Jan2001                  </c></rc>
   </set>
  </array>
 </atominfo>
 <structure name="initialpos" >
  <crystal>
   <varray name="basis" >
    <v>      10.93252578       0.00000000       0.00000000 </v>
    <v>       0.00000000      10.93252578       0.00000000 </v>
    <v>       0.00000000       0.00000000      10.93252578 </v>
   </varray>
   <i name="volume">   1306.65679237 </i>
   <varray name="rec_basis" >
    <v>       0.09147017       0.00000000       0.00000000 </v>
    <v>       0.00000000       0.09147017       0.00000000 </v>
    <v>       0.00000000       0.00000000       0.09147017 </v>
   </varray>
  </crystal>
  <varray name="positions" >
   <v>       0.44024411       0.43750000       0.43750000 </v>
   <v>       0.93750000       0.43750000       0.43750000 </v>
   <v>       0.43750000       0.93750000       0.43750000 </v>
   <v>       0.93750000       0.93750000       0.43750000 </v>
   <v>       0.43750000       0.43750000       0.93750000 </v>
   <v>       0.93750000       0.43750000       0.93750000 </v>
   <v>       0.43750000       0.93750000       0.93750000 </v>
   <v>       0.93750000       0.93750000       0.93750000 </v>
   <v>       0.43750000       0.18750000       0.18750000 </v>
   <v>       0.93750000       0.18750000       0.18750000 </v>
   <v>       0.43750000       0.68750000       0.18750000 </v>
   <v>       0.93750000       0.68750000       0.18750000 </v>
   <v>       0.43750000       0.18750000       0.68750000 </v>
   <v>       0.93750000       0.18750000       0.68750000 </v>
   <v>       0.43750000       0.68750000       0.68750000 </v>
   <v>       0.93750000       0.68750000       0.68750000 </v>
   <v>       0.18750000       0.43750000       0.18750000 </v>
   <v>       0.68750000       0.43750000       0.18750000 </v>
   <v>       0.18750000       0.93750000       0.18750000 </v>
   <v>       0.68750000       0.93750000       0.18750000 </v>
   <v>       0.18750000       0.43750000       0.68750000 </v>
   <v>       0.68750000       0.43750000       0.68750000 </v>
   <v>       0.18750000       0.93750000       0.68750000 </v>
   <v>       0.68750000       0.93750000       0.68750000 </v>
   <v>       0.18750000       0.18750000       0.43750000 </v>
   <v>       0.68750000       0.18750000       0.43750000 </v>
   <v>       0.18750000       0.68750000       0.43750000 </v>
   <v>       0.68750000       0.68750000       0.43750000 </v>
   <v>       0.18750000       0.18750000       0.93750000 </v>
   <v>       0.68750000       0.18750000       0.93750000 </v>
   <v>       0.18750000       0.68750000       0.93750000 </v>
   <v>       0.68750000       0.68750000       0.93750000 </v>
   <v>       0.06250000       0.06250000       0.06250000 </v>
   <v>       0.56250000       0.06250000       0.06250000 </v>
   <v>       0.06250000       0.56250000       0.06250000 </v>
   <v>       0.56250000       0.56250000       0.06250000 </v>
   <v>       0.06250000       0.06250000       0.56250000 </v>
   <v>       0.56250000       0.06250000       0.56250000 </v>
   <v>       0.06250000       0.56250000       0.56250000 </v>
   <v>       0.56250000       0.56250000       0.56250000 </v>
   <v>       0.06250000       0.31250000       0.31250000 </v>
   <v>       0.56250000       0.31250000       0.31250000 </v>
   <v>       0.06250000       0.81250000       0.31250000 </v>
   <v>       0.56250000       0.81250000       0.31250000 </v>
   <v>       0.06250000       0.31250000       0.81250000 </v>
   <v>       0.56250000       0.31250000       0.81250000 </v>
   <v>       0.06250000       0.81250000       0.81250000 </v>
   <v>       0.56250000       0.81250000       0.81250000 </v>
   <v>       0.31250000       0.06250000       0.31250000 </v>
   <v>       0.81250000       0.06250000       0.31250000 </v>
   <v>       0.31250000       0.56250000       0.31250000 </v>
   <v>       0.81250000       0.56524411       0.31250000 </v>
   <v>       0.31250000       0.06250000       0.81250000 </v>
   <v>       0.81250000       0.06250000       0.81250000 </v>
   <v>       0.31250000       0.56250000       0.81250000 </v>
   <v>       0.81250000       0.56250000       0.81250000 </v>
   <v>       0.31250000       0.31250000       0.06250000 </v>
   <v>       0.81250000       0.31250000       0.06250000 </v>
   <v>       0.31250000       0.81250000       0.06250000 </v>
   <v>       0.81250000       0.81250000       0.06250000 </v>
   <v>       0.31250000       0.31250000       0.56250000 </v>
   <v>       0.81250000       0.31250000       0.56250000 </v>
   <v>       0.31250000       0.81250000       0.56250000 </v>
   <v>       0.81250000       0.81250000       0.56250000 </v>
  </varray>
 </structure>
 <calculation>
  <scstep>
   <time name="dav">    5.51    5.51</time>
   <time name="total">    5.78    5.78</time>
   <energy>
    <i name="alphaZ">    105.52440745 </i>
    <i name="ewald">  -7265.47275114 </i>
    <i name="hartreedc">   -361.71094176 </i>
    <i name="XCdc">   -597.75714873 </i>
    <i name="pawpsdc">   5639.92317535 </i>
    <i name="pawaedc">  -4513.95313856 </i>
    <i name="eentropy">     -0.00124186 </i>
    <i name="bandstr">    856.88948372 </i>
    <i name="atom">   6596.14994790 </i>
    <i name="e_fr_energy">    459.59179237 </i>
    <i name="e_wo_entrp">    459.59303423 </i>
    <i name="e_0_energy">    459.59241330 </i>
   </energy>
  </scstep>
  <scstep>
   <time name="dav">    6.33    6.33</time>
   <time name="total">    6.33    6.34</time>
   <energy>
    <i name="e_fr_energy">   -300.07267761 </i>
    <i name="e_wo_entrp">   -300.07267761 </i>
    <i name="e_0_energy">   -300.07267761 </i>
   </energy>
  </scstep>
  <scstep>
   <time name="dav">    6.37    6.38</time>
   <time name="total">    6.38    6.38</time>
   <energy>
    <i name="e_fr_energy">   -350.93638939 </i>
    <i name="e_wo_entrp">   -350.93638939 </i>
    <i name="e_0_energy">   -350.93638939 </i>
   </energy>
  </scstep>
  <scstep>
   <time name="dav">    6.34    6.35</time>
   <time name="total">    6.35    6.36</time>
   <energy>
    <i name="e_fr_energy">   -352.26766370 </i>
    <i name="e_wo_entrp">   -352.26766370 </i>
    <i name="e_0_energy">   -352.26766370 </i>
   </energy>
  </scstep>
  <scstep>
   <time name="dav">    6.40    6.40</time>
   <time name="total">    6.70    6.71</time>
   <energy>
    <i name="e_fr_energy">   -352.31323223 </i>
    <i name="e_wo_entrp">   -352.31323223 </i>
    <i name="e_0_energy">   -352.31323223 </i>
   </energy>
  </scstep>
  <scstep>
   <time name="dav">    6.14    6.14</time>
   <time name="total">    6.72    6.73</time>
   <energy>
    <i name="e_fr_energy">   -348.58452039 </i>
    <i name="e_wo_entrp">   -348.58452039 </i>
    <i name="e_0_energy">   -348.58452039 </i>
   </energy>
  </scstep>
  <scstep>
   <time name="dav">    6.09    6.10</time>
   <time name="total">    6.66    6.67</time>
   <energy>
    <i name="e_fr_energy">   -346.87185571 </i>
    <i name="e_wo_entrp">   -346.87185571 </i>
    <i name="e_0_energy">   -346.87185571 </i>
   </energy>
  </scstep>
  <scstep>
   <time name="dav">    6.24    6.25</time>
   <time name="total">    6.81    6.82</time>
   <energy>
    <i name="e_fr_energy">   -346.89810878 </i>
    <i name="e_wo_entrp">   -346.89810878 </i>
    <i name="e_0_energy">   -346.89810878 </i>
   </energy>
  </scstep>
  <scstep>
   <time name="dav">    6.45    6.45</time>
   <time name="total">    7.01    7.02</time>
   <energy>
    <i name="e_fr_energy">   -346.90484926 </i>
    <i name="e_wo_entrp">   -346.90484926 </i>
    <i name="e_0_energy">   -346.90484926 </i>
   </energy>
  </scstep>
  <scstep>
   <time name="dav">    5.99    5.99</time>
   <time name="total">    6.56    6.57</time>
   <energy>
    <i name="e_fr_energy">   -346.90689370 </i>
    <i name="e_wo_entrp">   -346.90689370 </i>
    <i name="e_0_energy">   -346.90689370 </i>
   </energy>
  </scstep>
  <scstep>
   <time name="dav">    6.29    6.29</time>
   <time name="total">    6.85    6.88</time>
   <energy>
    <i name="e_fr_energy">   -346.90687137 </i>
    <i name="e_wo_entrp">   -346.90687137 </i>
    <i name="e_0_energy">   -346.90687137 </i>
   </energy>
  </scstep>
  <scstep>
   <time name="dav">    6.29    6.29</time>
   <time name="total">    6.85    6.86</time>
   <energy>
    <i name="e_fr_energy">   -346.90688575 </i>
    <i name="e_wo_entrp">   -346.90688575 </i>
    <i name="e_0_energy">   -346.90688575 </i>
   </energy>
  </scstep>
  <scstep>
   <time name="dav">    6.19    6.19</time>
   <time name="total">    6.75    6.76</time>
   <energy>
    <i name="e_fr_energy">   -346.90688650 </i>
    <i name="e_wo_entrp">   -346.90688650 </i>
    <i name="e_0_energy">   -346.90688650 </i>
   </energy>
  </scstep>
  <scstep>
   <time name="dav">    6.42    6.42</time>
   <time name="total">    6.98    6.99</time>
   <energy>
    <i name="e_fr_energy">   -346.90688710 </i>
    <i name="e_wo_entrp">   -346.90688710 </i>
    <i name="e_0_energy">   -346.90688710 </i>
   </energy>
  </scstep>
  <scstep>
   <time name="dav">    5.47    5.48</time>
   <time name="total">    6.04    6.05</time>
   <energy>
    <i name="e_fr_energy">   -346.90688685 </i>
    <i name="e_wo_entrp">   -346.90688685 </i>
    <i name="e_0_energy">   -346.90688685 </i>
   </energy>
  </scstep>
  <scstep>
   <time name="dav">    4.30    4.30</time>
   <time name="total">    4.86    4.88</time>
   <energy>
    <i name="e_fr_energy">   -346.90688693 </i>
    <i name="e_wo_entrp">   -346.90688693 </i>
    <i name="e_0_energy">   -346.90688693 </i>
   </energy>
  </scstep>
  <scstep>
   <time name="dav">    4.25    4.26</time>
   <time name="total">    4.82    4.82</time>
   <energy>
    <i name="e_fr_energy">   -346.90688691 </i>
    <i name="e_wo_entrp">   -346.90688691 </i>
    <i name="e_0_energy">   -346.90688691 </i>
   </energy>
  </scstep>
  <scstep>
   <time name="dav">    4.25    4.25</time>
   <time name="total">    4.82    4.94</time>
   <energy>
    <i name="e_fr_energy">   -346.90688693 </i>
    <i name="e_wo_entrp">   -346.90688693 </i>
    <i name="e_0_energy">   -346.90688693 </i>
   </energy>
  </scstep>
  <scstep>
   <time name="dav">    4.26    4.26</time>
   <time name="total">    4.52    4.54</time>
   <energy>
    <i name="alphaZ">    105.52440745 </i>
    <i name="ewald">  -7265.47275114 </i>
    <i name="hartreedc">   -485.14172153 </i>
    <i name="XCdc">   -577.61229310 </i>
    <i name="pawpsdc">  27883.43636606 </i>
    <i name="pawaedc"> -26764.15429480 </i>
    <i name="eentropy">      0.00000000 </i>
    <i name="bandstr">    160.36345223 </i>
    <i name="atom">   6596.14994790 </i>
    <i name="e_fr_energy">   -346.90688693 </i>
    <i name="e_wo_entrp">   -346.90688693 </i>
    <i name="e_0_energy">   -346.90688693 </i>
   </energy>
  </scstep>
  <structure>
   <crystal>
    <varray name="basis" >
     <v>      10.93252578       0.00000000       0.00000000 </v>
     <v>       0.00000000      10.93252578       0.00000000 </v>
     <v>       0.00000000       0.00000000      10.93252578 </v>
    </varray>
    <i name="volume">   1306.65679237 </i>
    <varray name="rec_basis" >
     <v>       0.09147017       0.00000000       0.00000000 </v>
     <v>       0.00000000       0.09147017       0.00000000 </v>
     <v>       0.00000000       0.00000000       0.09147017 </v>
    </varray>
   </crystal>
   <varray name="positions" >
    <v>       0.44024411       0.43750000       0.43750000 </v>
    <v>       0.93750000       0.43750000       0.43750000 </v>
    <v>       0.43750000       0.93750000       0.43750000 </v>
    <v>       0.93750000       0.93750000       0.43750000 </v>
    <v>       0.43750000       0.43750000       0.93750000 </v>
    <v>       0.93750000       0.43750000       0.93750000 </v>
    <v>       0.43750000       0.93750000       0.93750000 </v>
    <v>       0.93750000       0.93750000       0.93750000 </v>
    <v>       0.43750000       0.18750000       0.18750000 </v>
    <v>       0.93750000       0.18750000       0.18750000 </v>
    <v>       0.43750000       0.68750000       0.18750000 </v>
    <v>       0.93750000       0.68750000       0.18750000 </v>
    <v>       0.43750000       0.18750000       0.68750000 </v>
    <v>       0.93750000       0.18750000       0.68750000 </v>
    <v>       0.43750000       0.68750000       0.68750000 </v>
    <v>       0.93750000       0.68750000       0.68750000 </v>
    <v>       0.18750000       0.43750000       0.18750000 </v>
    <v>       0.68750000       0.43750000       0.18750000 </v>
    <v>       0.18750000       0.93750000       0.18750000 </v>
    <v>       0.68750000       0.93750000       0.18750000 </v>
    <v>       0.18750000       0.43750000       0.68750000 </v>
    <v>       0.68750000       0.43750000       0.68750000 </v>
    <v>       0.18750000       0.93750000       0.68750000 </v>
    <v>       0.68750000       0.93750000       0.68750000 </v>
    <v>       0.18750000       0.18750000       0.43750000 </v>
    <v>       0.68750000       0.18750000       0.43750000 </v>
    <v>       0.18750000       0.68750000       0.43750000 </v>
    <v>       0.68750000       0.68750000       0.43750000 </v>
    <v>       0.18750000       0.18750000       0.93750000 </v>
    <v>       0.68750000       0.18750000       0.93750000 </v>
    <v>       0.18750000       0.68750000       0.93750000 </v>
    <v>       0.68750000       0.68750000       0.93750000 </v>
    <v>       0.06250000       0.06250000       0.06250000 </v>
    <v>       0.56250000       0.06250000       0.06250000 </v>
    <v>       0.06250000       0.56250000       0.06250000 </v>
    <v>       0.56250000       0.56250000       0.06250000 </v>
    <v>       0.06250000       0.06250000       0.56250000 </v>
    <v>       0.56250000       0.06250000       0.56250000 </v>
    <v>       0.06250000       0.56250000       0.56250000 </v>
    <v>       0.56250000       0.56250000       0.56250000 </v>
    <v>       0.06250000       0.31250000       0.31250000 </v>
    <v>       0.56250000       0.31250000       0.31250000 </v>
    <v>       0.06250000       0.81250000       0.31250000 </v>
    <v>       0.56250000       0.81250000       0.31250000 </v>
    <v>       0.06250000       0.31250000       0.81250000 </v>
    <v>       0.56250000       0.31250000       0.81250000 </v>
    <v>       0.06250000       0.81250000       0.81250000 </v>
    <v>       0.56250000       0.81250000       0.81250000 </v>
    <v>       0.31250000       0.06250000       0.31250000 </v>
    <v>       0.81250000       0.06250000       0.31250000 </v>
    <v>       0.31250000       0.56250000       0.31250000 </v>
    <v>       0.81250000       0.56524411       0.31250000 </v>
    <v>       0.31250000       0.06250000       0.81250000 </v>
    <v>       0.81250000       0.06250000       0.81250000 </v>
    <v>       0.31250000       0.56250000       0.81250000 </v>
    <v>       0.81250000       0.56250000       0.81250000 </v>
    <v>       0.31250000       0.31250000       0.06250000 </v>
    <v>       0.81250000       0.31250000       0.06250000 </v>
    <v>       0.31250000       0.81250000       0.06250000 </v>
    <v>       0.81250000       0.81250000       0.06250000 </v>
    <v>       0.31250000       0.31250000       0.56250000 </v>
    <v>       0.81250000       0.31250000       0.56250000 </v>
    <v>       0.31250000       0.81250000       0.56250000 </v>
    <v>       0.81250000       0.81250000       0.56250000 </v>
   </varray>
  </structure>
  <varray name="forces" >
   <v>      -0.38802040      -0.00144880      -0.00124592 </v>
   <v>      -0.06040851       0.09307087      -0.06096863 </v>
   <v>       0.00067553       0.00066178      -0.00070965 </v>
   <v>      -0.00108221      -0.00027660      -0.00089921 </v>
   <v>       0.00064466       0.00613507      -0.00067499 </v>
   <v>      -0.00142212      -0.00143203      -0.00088992 </v>
   <v>      -0.01229332      -0.00053298      -0.00074429 </v>
   <v>      -0.00013093       0.00066246      -0.00063893 </v>
   <v>      -0.01228281       0.00338236       0.00212108 </v>
   <v>       0.00088721      -0.00004940      -0.00068396 </v>
   <v>      -0.01185084       0.00118939      -0.00387543 </v>
   <v>       0.06611008       0.09602309      -0.06635182 </v>
   <v>      -0.01202023      -0.00320123       0.00190859 </v>
   <v>       0.00065234       0.00038448      -0.00036690 </v>
   <v>      -0.01220202       0.00344544      -0.00344675 </v>
   <v>       0.00118771      -0.00170325      -0.00115167 </v>
   <v>       0.00653362      -0.00410410       0.00680569 </v>
   <v>       0.06676150       0.09029211       0.05526161 </v>
   <v>       0.00165452       0.00043211      -0.00115296 </v>
   <v>       0.00192472      -0.00050489       0.00275029 </v>
   <v>       0.00631894       0.00881365      -0.00488608 </v>
   <v>       0.00704560       0.00133318       0.00658460 </v>
   <v>       0.00176184      -0.00030391       0.00260751 </v>
   <v>       0.00172891       0.00089272      -0.00120815 </v>
   <v>       0.00504944       0.00617487      -0.00201808 </v>
   <v>       0.00489256      -0.00596301      -0.00185680 </v>
   <v>       0.00472292      -0.00703805       0.00388682 </v>
   <v>      -0.06029117       0.10149850       0.06886750 </v>
   <v>       0.00026240      -0.00239644       0.00052489 </v>
   <v>       0.00036917       0.00246552       0.00036999 </v>
   <v>       0.00033113       0.00807185       0.00091727 </v>
   <v>      -0.00019006      -0.00332228       0.00115412 </v>
   <v>      -0.00076258       0.00072943       0.00098192 </v>
   <v>       0.00597677       0.00068344       0.00045242 </v>
   <v>      -0.00215325      -0.01222316       0.00337220 </v>
   <v>      -0.00413870      -0.01156478      -0.00174278 </v>
   <v>       0.00085196       0.00060046       0.00088548 </v>
   <v>      -0.00124921       0.00089743       0.00098481 </v>
   <v>       0.00238945      -0.01186554       0.00357925 </v>
   <v>       0.09856524       0.05322347       0.06331652 </v>
   <v>      -0.00583652       0.00473747      -0.00357835 </v>
   <v>       0.10136103      -0.06046272      -0.06343774 </v>
   <v>       0.00630774       0.00520085      -0.00342392 </v>
   <v>      -0.00716173       0.00487708       0.00156387 </v>
   <v>       0.00248022       0.00036251      -0.00083221 </v>
   <v>      -0.00333707      -0.00019472      -0.00069419 </v>
   <v>      -0.00238272       0.00026668      -0.00098317 </v>
   <v>       0.00806042       0.00033715      -0.00045623 </v>
   <v>      -0.00143469      -0.00106758       0.00124718 </v>
   <v>       0.00066186      -0.00008940       0.00070345 </v>
   <v>       0.09306974      -0.05964326       0.06096221 </v>
   <v>      -0.00027711      -0.38800508       0.00094159 </v>
   <v>       0.00613600      -0.00009972       0.00067493 </v>
   <v>      -0.00053518      -0.00092240       0.00074468 </v>
   <v>      -0.00143199      -0.01279385       0.00088463 </v>
   <v>       0.00066257       0.00061007       0.00063835 </v>
   <v>      -0.00120209       0.00226294      -0.00275041 </v>
   <v>       0.00332923       0.00635534       0.00491827 </v>
   <v>       0.00636472       0.00169490       0.00116955 </v>
   <v>       0.00223585       0.00654988      -0.00643587 </v>
   <v>       0.09284250       0.06198400      -0.05909774 </v>
   <v>      -0.00294751       0.00655398      -0.00646501 </v>
   <v>      -0.00165974       0.00191003      -0.00309381 </v>
   <v>      -0.00210541       0.00644261       0.00498029 </v>
  </varray>
  <varray name="stress" >
   <v>       0.00164019       0.00004134      -0.33493508 </v>
   <v>       0.00004134       0.00166422       0.33494601 </v>
   <v>      -0.33493508       0.33494603       0.02087578 </v>
  </varray>
  <energy>
   <i name="e_fr_energy">   -346.90688693 </i>
   <i name="e_wo_entrp">   -346.90688693 </i>
   <i name="e_0_energy">      0.00000000 </i>
  </energy>
  <time name="totalsc">  129.51  129.91</time>
  <eigenvalues>
   <array>
    <dimension dim="1">band</dimension>
    <dimension dim="2">kpoint</dimension>
    <dimension dim="3">spin</dimension>
    <field>eigene</field>
    <field>occ</field>
    <set>
     <set comment="spin 1">
      <set comment="kpoint 1">
       <r>   -5.9932    1.0000 </r>
       <r>   -5.4673    1.0000 </r>
       <r>   -5.4654    1.0000 </r>
       <r>   -5.4616    1.0000 </r>
       <r>   -4.9680    1.0000 </r>
       <r>   -4.9661    1.0000 </r>
       <r>   -4.9625    1.0000 </r>
       <r>   -4.5322    1.0000 </r>
       <r>   -4.4351    1.0000 </r>
       <r>   -4.4331    1.0000 </r>
       <r>   -4.4291    1.0000 </r>
       <r>   -4.0246    1.0000 </r>
       <r>   -4.0196    1.0000 </r>
       <r>   -4.0173    1.0000 </r>
       <r>   -4.0150    1.0000 </r>
       <r>   -4.0142    1.0000 </r>
       <r>   -4.0080    1.0000 </r>
       <r>   -3.8286    1.0000 </r>
       <r>   -3.8243    1.0000 </r>
       <r>   -3.8200    1.0000 </r>
       <r>   -3.3318    1.0000 </r>
       <r>   -3.3287    1.0000 </r>
       <r>   -3.3246    1.0000 </r>
       <r>   -2.9640    1.0000 </r>
       <r>   -2.9592    1.0000 </r>
       <r>   -2.9545    1.0000 </r>
       <r>   -2.7988    1.0000 </r>
       <r>   -2.7936    1.0000 </r>
       <r>   -2.7920    1.0000 </r>
       <r>   -2.7898    1.0000 </r>
       <r>   -2.7883    1.0000 </r>
       <r>   -2.7825    1.0000 </r>
       <r>   -1.2574    1.0000 </r>
       <r>   -1.2517    1.0000 </r>
       <r>   -1.2503    1.0000 </r>
       <r>   -1.2461    1.0000 </r>
       <r>   -1.2455    1.0000 </r>
       <r>   -1.2424    1.0000 </r>
       <r>   -1.1561    1.0000 </r>
       <r>   -1.1510    1.0000 </r>
       <r>   -1.1457    1.0000 </r>
       <r>   -1.0380    1.0000 </r>
       <r>   -1.0328    1.0000 </r>
       <r>   -1.0274    1.0000 </r>
       <r>   -0.9538    1.0000 </r>
       <r>   -0.9463    1.0000 </r>
       <r>   -0.9400    1.0000 </r>
       <r>   -0.2446    1.0000 </r>
       <r>   -0.1693    1.0000 </r>
       <r>   -0.1634    1.0000 </r>
       <r>   -0.1618    1.0000 </r>
       <r>   -0.1568    1.0000 </r>
       <r>   -0.1553    1.0000 </r>
       <r>   -0.1540    1.0000 </r>
       <r>    0.7083    1.0000 </r>
       <r>    0.7144    1.0000 </r>
       <r>    0.7201    1.0000 </r>
       <r>    1.0429    1.0000 </r>
       <r>    1.0472    1.0000 </r>
       <r>    1.0512    1.0000 </r>
       <r>    1.6516    1.0000 </r>
       <r>    1.6546    1.0000 </r>
       <r>    1.6569    1.0000 </r>
       <r>    1.6576    1.0000 </r>
       <r>    1.6585    1.0000 </r>
       <r>    1.6622    1.0000 </r>
       <r>    1.7134    1.0000 </r>
       <r>    1.7163    1.0000 </r>
       <r>    1.7188    1.0000 </r>
       <r>    2.2648    1.0000 </r>
       <r>    2.2678    1.0000 </r>
       <r>    2.2705    1.0000 </r>
       <r>    2.3653    1.0000 </r>
       <r>    2.3668    1.0000 </r>
       <r>    2.3696    1.0000 </r>
       <r>    2.3729    1.0000 </r>
       <r>    2.3738    1.0000 </r>
       <r>    2.3764    1.0000 </r>
       <r>    2.4215    1.0000 </r>
       <r>    2.4245    1.0000 </r>
       <r>    2.4292    1.0000 </r>
       <r>    2.7298    1.0000 </r>
       <r>    2.7327    1.0000 </r>
       <r>    2.7344    1.0000 </r>
       <r>    2.7353    1.0000 </r>
       <r>    2.7371    1.0000 </r>
       <r>    2.7403    1.0000 </r>
       <r>    2.9969    1.0000 </r>
       <r>    2.9988    1.0000 </r>
       <r>    3.0012    1.0000 </r>
       <r>    3.0098    1.0000 </r>
       <r>    3.0139    1.0000 </r>
       <r>    3.0176    1.0000 </r>
       <r>    3.3587    1.0000 </r>
       <r>    3.3623    1.0000 </r>
       <r>    3.3644    1.0000 </r>
       <r>    3.3803    1.0000 </r>
       <r>    3.3840    1.0000 </r>
       <r>    3.3892    1.0000 </r>
       <r>    3.4638    1.0000 </r>
       <r>    3.4670    1.0000 </r>
       <r>    3.4690    1.0000 </r>
       <r>    3.7332    1.0000 </r>
       <r>    3.7393    1.0000 </r>
       <r>    3.7403    1.0000 </r>
       <r>    3.7422    1.0000 </r>
       <r>    3.7439    1.0000 </r>
       <r>    3.7483    1.0000 </r>
       <r>    3.7776    1.0000 </r>
       <r>    3.7814    1.0000 </r>
       <r>    3.7834    1.0000 </r>
       <r>    4.0407    1.0000 </r>
       <r>    4.0948    1.0000 </r>
       <r>    4.0977    1.0000 </r>
       <r>    4.1014    1.0000 </r>
       <r>    4.3379    1.0000 </r>
       <r>    4.3413    1.0000 </r>
       <r>    4.3439    1.0000 </r>
       <r>    4.4001    1.0000 </r>
       <r>    4.4058    1.0000 </r>
       <r>    4.4119    1.0000 </r>
       <r>    4.5587    1.0000 </r>
       <r>    4.5671    1.0000 </r>
       <r>    4.8659    1.0000 </r>
       <r>    4.8706    1.0000 </r>
       <r>    4.8738    1.0000 </r>
       <r>    5.3451    1.0000 </r>
       <r>    5.3544    1.0000 </r>
       <r>    6.5603    0.0000 </r>
       <r>    6.5628    0.0000 </r>
       <r>    6.5670    0.0000 </r>
       <r>    6.9995    0.0000 </r>
       <r>    7.0062    0.0000 </r>
       <r>    7.0075    0.0000 </r>
       <r>    7.2337    0.0000 </r>
       <r>    7.4861    0.0000 </r>
       <r>    7.4920    0.0000 </r>
       <r>    7.4941    0.0000 </r>
       <r>    7.6153    0.0000 </r>
       <r>    7.6197    0.0000 </r>
       <r>    7.6238    0.0000 </r>
       <r>    7.7759    0.0000 </r>
       <r>    7.7800    0.0000 </r>
       <r>    7.7831    0.0000 </r>
       <r>    7.7986    0.0000 </r>
       <r>    7.8001    0.0000 </r>
       <r>    7.8053    0.0000 </r>
       <r>    8.0234    0.0000 </r>
       <r>    8.0265    0.0000 </r>
       <r>    8.0299    0.0000 </r>
       <r>    8.0323    0.0000 </r>
       <r>    8.0345    0.0000 </r>
       <r>    8.0363    0.0000 </r>
       <r>    8.0815    0.0000 </r>
       <r>    8.2917    0.0000 </r>
       <r>    8.2957    0.0000 </r>
       <r>    8.2976    0.0000 </r>
       <r>    8.4938    0.0000 </r>
       <r>    8.5000    0.0000 </r>
       <r>    8.5029    0.0000 </r>
       <r>    8.5054    0.0000 </r>
       <r>    8.5095    0.0000 </r>
       <r>    8.5169    0.0000 </r>
       <r>    8.5463    0.0000 </r>
      </set>
      <set comment="kpoint 2">
       <r>   -5.9931    1.0000 </r>
       <r>   -5.4674    1.0000 </r>
       <r>   -5.4648    1.0000 </r>
       <r>   -5.4624    1.0000 </r>
       <r>   -4.9681    1.0000 </r>
       <r>   -4.9653    1.0000 </r>
       <r>   -4.9631    1.0000 </r>
       <r>   -4.5313    1.0000 </r>
       <r>   -4.4345    1.0000 </r>
       <r>   -4.4321    1.0000 </r>
       <r>   -4.4297    1.0000 </r>
       <r>   -4.0256    1.0000 </r>
       <r>   -4.0205    1.0000 </r>
       <r>   -4.0154    1.0000 </r>
       <r>   -4.0149    1.0000 </r>
       <r>   -4.0133    1.0000 </r>
       <r>   -4.0117    1.0000 </r>
       <r>   -3.8293    1.0000 </r>
       <r>   -3.8239    1.0000 </r>
       <r>   -3.8217    1.0000 </r>
       <r>   -3.3294    1.0000 </r>
       <r>   -3.3263    1.0000 </r>
       <r>   -3.3240    1.0000 </r>
       <r>   -2.9651    1.0000 </r>
       <r>   -2.9576    1.0000 </r>
       <r>   -2.9559    1.0000 </r>
       <r>   -2.7985    1.0000 </r>
       <r>   -2.7956    1.0000 </r>
       <r>   -2.7897    1.0000 </r>
       <r>   -2.7895    1.0000 </r>
       <r>   -2.7871    1.0000 </r>
       <r>   -2.7863    1.0000 </r>
       <r>   -1.2560    1.0000 </r>
       <r>   -1.2530    1.0000 </r>
       <r>   -1.2471    1.0000 </r>
       <r>   -1.2462    1.0000 </r>
       <r>   -1.2446    1.0000 </r>
       <r>   -1.2437    1.0000 </r>
       <r>   -1.1560    1.0000 </r>
       <r>   -1.1485    1.0000 </r>
       <r>   -1.1461    1.0000 </r>
       <r>   -1.0343    1.0000 </r>
       <r>   -1.0321    1.0000 </r>
       <r>   -1.0267    1.0000 </r>
       <r>   -0.9556    1.0000 </r>
       <r>   -0.9511    1.0000 </r>
       <r>   -0.9456    1.0000 </r>
       <r>   -0.2481    1.0000 </r>
       <r>   -0.1673    1.0000 </r>
       <r>   -0.1626    1.0000 </r>
       <r>   -0.1585    1.0000 </r>
       <r>   -0.1555    1.0000 </r>
       <r>   -0.1548    1.0000 </r>
       <r>   -0.1534    1.0000 </r>
       <r>    0.7070    1.0000 </r>
       <r>    0.7124    1.0000 </r>
       <r>    0.7166    1.0000 </r>
       <r>    1.0455    1.0000 </r>
       <r>    1.0459    1.0000 </r>
       <r>    1.0500    1.0000 </r>
       <r>    1.6531    1.0000 </r>
       <r>    1.6547    1.0000 </r>
       <r>    1.6571    1.0000 </r>
       <r>    1.6578    1.0000 </r>
       <r>    1.6586    1.0000 </r>
       <r>    1.6606    1.0000 </r>
       <r>    1.7159    1.0000 </r>
       <r>    1.7167    1.0000 </r>
       <r>    1.7193    1.0000 </r>
       <r>    2.2631    1.0000 </r>
       <r>    2.2665    1.0000 </r>
       <r>    2.2679    1.0000 </r>
       <r>    2.3671    1.0000 </r>
       <r>    2.3691    1.0000 </r>
       <r>    2.3708    1.0000 </r>
       <r>    2.3731    1.0000 </r>
       <r>    2.3745    1.0000 </r>
       <r>    2.3772    1.0000 </r>
       <r>    2.4252    1.0000 </r>
       <r>    2.4264    1.0000 </r>
       <r>    2.4303    1.0000 </r>
       <r>    2.7295    1.0000 </r>
       <r>    2.7323    1.0000 </r>
       <r>    2.7350    1.0000 </r>
       <r>    2.7364    1.0000 </r>
       <r>    2.7368    1.0000 </r>
       <r>    2.7386    1.0000 </r>
       <r>    2.9985    1.0000 </r>
       <r>    2.9997    1.0000 </r>
       <r>    3.0024    1.0000 </r>
       <r>    3.0131    1.0000 </r>
       <r>    3.0136    1.0000 </r>
       <r>    3.0179    1.0000 </r>
       <r>    3.3570    1.0000 </r>
       <r>    3.3602    1.0000 </r>
       <r>    3.3630    1.0000 </r>
       <r>    3.3777    1.0000 </r>
       <r>    3.3821    1.0000 </r>
       <r>    3.3844    1.0000 </r>
       <r>    3.4652    1.0000 </r>
       <r>    3.4684    1.0000 </r>
       <r>    3.4696    1.0000 </r>
       <r>    3.7318    1.0000 </r>
       <r>    3.7339    1.0000 </r>
       <r>    3.7392    1.0000 </r>
       <r>    3.7412    1.0000 </r>
       <r>    3.7424    1.0000 </r>
       <r>    3.7435    1.0000 </r>
       <r>    3.7794    1.0000 </r>
       <r>    3.7827    1.0000 </r>
       <r>    3.7840    1.0000 </r>
       <r>    4.0367    1.0000 </r>
       <r>    4.0978    1.0000 </r>
       <r>    4.0989    1.0000 </r>
       <r>    4.1037    1.0000 </r>
       <r>    4.3401    1.0000 </r>
       <r>    4.3436    1.0000 </r>
       <r>    4.3451    1.0000 </r>
       <r>    4.3971    1.0000 </r>
       <r>    4.4016    1.0000 </r>
       <r>    4.4053    1.0000 </r>
       <r>    4.5617    1.0000 </r>
       <r>    4.5665    1.0000 </r>
       <r>    4.8690    1.0000 </r>
       <r>    4.8737    1.0000 </r>
       <r>    4.8754    1.0000 </r>
       <r>    5.3493    1.0000 </r>
       <r>    5.3547    1.0000 </r>
       <r>    6.5617    0.0000 </r>
       <r>    6.5653    0.0000 </r>
       <r>    6.5679    0.0000 </r>
       <r>    7.0011    0.0000 </r>
       <r>    7.0057    0.0000 </r>
       <r>    7.0087    0.0000 </r>
       <r>    7.2352    0.0000 </r>
       <r>    7.4887    0.0000 </r>
       <r>    7.4931    0.0000 </r>
       <r>    7.4950    0.0000 </r>
       <r>    7.6151    0.0000 </r>
       <r>    7.6170    0.0000 </r>
       <r>    7.6226    0.0000 </r>
       <r>    7.7776    0.0000 </r>
       <r>    7.7804    0.0000 </r>
       <r>    7.7828    0.0000 </r>
       <r>    7.7988    0.0000 </r>
       <r>    7.8006    0.0000 </r>
       <r>    7.8062    0.0000 </r>
       <r>    8.0220    0.0000 </r>
       <r>    8.0252    0.0000 </r>
       <r>    8.0280    0.0000 </r>
       <r>    8.0305    0.0000 </r>
       <r>    8.0327    0.0000 </r>
       <r>    8.0342    0.0000 </r>
       <r>    8.0836    0.0000 </r>
       <r>    8.2927    0.0000 </r>
       <r>    8.2958    0.0000 </r>
       <r>    8.2971    0.0000 </r>
       <r>    8.4951    0.0000 </r>
       <r>    8.4975    0.0000 </r>
       <r>    8.5013    0.0000 </r>
       <r>    8.5029    0.0000 </r>
       <r>    8.5099    0.0000 </r>
       <r>    8.5230    0.0000 </r>
       <r>    8.5384    0.0000 </r>
      </set>
      <set comment="kpoint 3">
       <r>   -5.9932    1.0000 </r>
       <r>   -5.4671    1.0000 </r>
       <r>   -5.4647    1.0000 </r>
       <r>   -5.4622    1.0000 </r>
       <r>   -4.9679    1.0000 </r>
       <r>   -4.9657    1.0000 </r>
       <r>   -4.9631    1.0000 </r>
       <r>   -4.5332    1.0000 </r>
       <r>   -4.4351    1.0000 </r>
       <r>   -4.4328    1.0000 </r>
       <r>   -4.4305    1.0000 </r>
       <r>   -4.0214    1.0000 </r>
       <r>   -4.0197    1.0000 </r>
       <r>   -4.0184    1.0000 </r>
       <r>   -4.0162    1.0000 </r>
       <r>   -4.0127    1.0000 </r>
       <r>   -4.0077    1.0000 </r>
       <r>   -3.8270    1.0000 </r>
       <r>   -3.8248    1.0000 </r>
       <r>   -3.8191    1.0000 </r>
       <r>   -3.3326    1.0000 </r>
       <r>   -3.3304    1.0000 </r>
       <r>   -3.3273    1.0000 </r>
       <r>   -2.9623    1.0000 </r>
       <r>   -2.9607    1.0000 </r>
       <r>   -2.9536    1.0000 </r>
       <r>   -2.7956    1.0000 </r>
       <r>   -2.7942    1.0000 </r>
       <r>   -2.7929    1.0000 </r>
       <r>   -2.7907    1.0000 </r>
       <r>   -2.7864    1.0000 </r>
       <r>   -2.7834    1.0000 </r>
       <r>   -1.2553    1.0000 </r>
       <r>   -1.2529    1.0000 </r>
       <r>   -1.2515    1.0000 </r>
       <r>   -1.2486    1.0000 </r>
       <r>   -1.2457    1.0000 </r>
       <r>   -1.2419    1.0000 </r>
       <r>   -1.1559    1.0000 </r>
       <r>   -1.1535    1.0000 </r>
       <r>   -1.1462    1.0000 </r>
       <r>   -1.0388    1.0000 </r>
       <r>   -1.0332    1.0000 </r>
       <r>   -1.0310    1.0000 </r>
       <r>   -0.9480    1.0000 </r>
       <r>   -0.9422    1.0000 </r>
       <r>   -0.9377    1.0000 </r>
       <r>   -0.2411    1.0000 </r>
       <r>   -0.1683    1.0000 </r>
       <r>   -0.1658    1.0000 </r>
       <r>   -0.1637    1.0000 </r>
       <r>   -0.1602    1.0000 </r>
       <r>   -0.1586    1.0000 </r>
       <r>   -0.1527    1.0000 </r>
       <r>    0.7119    1.0000 </r>
       <r>    0.7162    1.0000 </r>
       <r>    0.7216    1.0000 </r>
       <r>    1.0442    1.0000 </r>
       <r>    1.0482    1.0000 </r>
       <r>    1.0487    1.0000 </r>
       <r>    1.6525    1.0000 </r>
       <r>    1.6549    1.0000 </r>
       <r>    1.6563    1.0000 </r>
       <r>    1.6579    1.0000 </r>
       <r>    1.6591    1.0000 </r>
       <r>    1.6598    1.0000 </r>
       <r>    1.7128    1.0000 </r>
       <r>    1.7158    1.0000 </r>
       <r>    1.7168    1.0000 </r>
       <r>    2.2675    1.0000 </r>
       <r>    2.2684    1.0000 </r>
       <r>    2.2728    1.0000 </r>
       <r>    2.3642    1.0000 </r>
       <r>    2.3660    1.0000 </r>
       <r>    2.3689    1.0000 </r>
       <r>    2.3709    1.0000 </r>
       <r>    2.3729    1.0000 </r>
       <r>    2.3741    1.0000 </r>
       <r>    2.4201    1.0000 </r>
       <r>    2.4239    1.0000 </r>
       <r>    2.4252    1.0000 </r>
       <r>    2.7314    1.0000 </r>
       <r>    2.7320    1.0000 </r>
       <r>    2.7339    1.0000 </r>
       <r>    2.7346    1.0000 </r>
       <r>    2.7382    1.0000 </r>
       <r>    2.7405    1.0000 </r>
       <r>    2.9962    1.0000 </r>
       <r>    2.9987    1.0000 </r>
       <r>    2.9993    1.0000 </r>
       <r>    3.0096    1.0000 </r>
       <r>    3.0135    1.0000 </r>
       <r>    3.0140    1.0000 </r>
       <r>    3.3612    1.0000 </r>
       <r>    3.3634    1.0000 </r>
       <r>    3.3662    1.0000 </r>
       <r>    3.3842    1.0000 </r>
       <r>    3.3851    1.0000 </r>
       <r>    3.3935    1.0000 </r>
       <r>    3.4636    1.0000 </r>
       <r>    3.4648    1.0000 </r>
       <r>    3.4682    1.0000 </r>
       <r>    3.7394    1.0000 </r>
       <r>    3.7404    1.0000 </r>
       <r>    3.7409    1.0000 </r>
       <r>    3.7433    1.0000 </r>
       <r>    3.7480    1.0000 </r>
       <r>    3.7511    1.0000 </r>
       <r>    3.7771    1.0000 </r>
       <r>    3.7788    1.0000 </r>
       <r>    3.7827    1.0000 </r>
       <r>    4.0442    1.0000 </r>
       <r>    4.0931    1.0000 </r>
       <r>    4.0969    1.0000 </r>
       <r>    4.0974    1.0000 </r>
       <r>    4.3372    1.0000 </r>
       <r>    4.3383    1.0000 </r>
       <r>    4.3419    1.0000 </r>
       <r>    4.4060    1.0000 </r>
       <r>    4.4103    1.0000 </r>
       <r>    4.4151    1.0000 </r>
       <r>    4.5593    1.0000 </r>
       <r>    4.5642    1.0000 </r>
       <r>    4.8647    1.0000 </r>
       <r>    4.8665    1.0000 </r>
       <r>    4.8712    1.0000 </r>
       <r>    5.3448    1.0000 </r>
       <r>    5.3501    1.0000 </r>
       <r>    6.5597    0.0000 </r>
       <r>    6.5608    0.0000 </r>
       <r>    6.5649    0.0000 </r>
       <r>    7.0001    0.0000 </r>
       <r>    7.0031    0.0000 </r>
       <r>    7.0078    0.0000 </r>
       <r>    7.2323    0.0000 </r>
       <r>    7.4862    0.0000 </r>
       <r>    7.4883    0.0000 </r>
       <r>    7.4929    0.0000 </r>
       <r>    7.6164    0.0000 </r>
       <r>    7.6222    0.0000 </r>
       <r>    7.6241    0.0000 </r>
       <r>    7.7771    0.0000 </r>
       <r>    7.7789    0.0000 </r>
       <r>    7.7822    0.0000 </r>
       <r>    7.7981    0.0000 </r>
       <r>    7.8011    0.0000 </r>
       <r>    7.8022    0.0000 </r>
       <r>    8.0264    0.0000 </r>
       <r>    8.0290    0.0000 </r>
       <r>    8.0300    0.0000 </r>
       <r>    8.0336    0.0000 </r>
       <r>    8.0357    0.0000 </r>
       <r>    8.0384    0.0000 </r>
       <r>    8.0794    0.0000 </r>
       <r>    8.2927    0.0000 </r>
       <r>    8.2942    0.0000 </r>
       <r>    8.2973    0.0000 </r>
       <r>    8.4966    0.0000 </r>
       <r>    8.4987    0.0000 </r>
       <r>    8.5014    0.0000 </r>
       <r>    8.5047    0.0000 </r>
       <r>    8.5099    0.0000 </r>
       <r>    8.5152    0.0000 </r>
       <r>    8.5420    0.0000 </r>
      </set>
      <set comment="kpoint 4">
       <r>   -5.9932    1.0000 </r>
       <r>   -5.4687    1.0000 </r>
       <r>   -5.4643    1.0000 </r>
       <r>   -5.4613    1.0000 </r>
       <r>   -4.9694    1.0000 </r>
       <r>   -4.9651    1.0000 </r>
       <r>   -4.9621    1.0000 </r>
       <r>   -4.5324    1.0000 </r>
       <r>   -4.4363    1.0000 </r>
       <r>   -4.4318    1.0000 </r>
       <r>   -4.4292    1.0000 </r>
       <r>   -4.0266    1.0000 </r>
       <r>   -4.0174    1.0000 </r>
       <r>   -4.0164    1.0000 </r>
       <r>   -4.0157    1.0000 </r>
       <r>   -4.0135    1.0000 </r>
       <r>   -4.0091    1.0000 </r>
       <r>   -3.8285    1.0000 </r>
       <r>   -3.8244    1.0000 </r>
       <r>   -3.8200    1.0000 </r>
       <r>   -3.3326    1.0000 </r>
       <r>   -3.3280    1.0000 </r>
       <r>   -3.3245    1.0000 </r>
       <r>   -2.9641    1.0000 </r>
       <r>   -2.9591    1.0000 </r>
       <r>   -2.9545    1.0000 </r>
       <r>   -2.7997    1.0000 </r>
       <r>   -2.7918    1.0000 </r>
       <r>   -2.7911    1.0000 </r>
       <r>   -2.7903    1.0000 </r>
       <r>   -2.7884    1.0000 </r>
       <r>   -2.7836    1.0000 </r>
       <r>   -1.2577    1.0000 </r>
       <r>   -1.2517    1.0000 </r>
       <r>   -1.2493    1.0000 </r>
       <r>   -1.2482    1.0000 </r>
       <r>   -1.2464    1.0000 </r>
       <r>   -1.2402    1.0000 </r>
       <r>   -1.1560    1.0000 </r>
       <r>   -1.1512    1.0000 </r>
       <r>   -1.1456    1.0000 </r>
       <r>   -1.0380    1.0000 </r>
       <r>   -1.0327    1.0000 </r>
       <r>   -1.0274    1.0000 </r>
       <r>   -0.9511    1.0000 </r>
       <r>   -0.9478    1.0000 </r>
       <r>   -0.9412    1.0000 </r>
       <r>   -0.2446    1.0000 </r>
       <r>   -0.1691    1.0000 </r>
       <r>   -0.1652    1.0000 </r>
       <r>   -0.1609    1.0000 </r>
       <r>   -0.1596    1.0000 </r>
       <r>   -0.1566    1.0000 </r>
       <r>   -0.1493    1.0000 </r>
       <r>    0.7103    1.0000 </r>
       <r>    0.7140    1.0000 </r>
       <r>    0.7186    1.0000 </r>
       <r>    1.0432    1.0000 </r>
       <r>    1.0471    1.0000 </r>
       <r>    1.0509    1.0000 </r>
       <r>    1.6523    1.0000 </r>
       <r>    1.6551    1.0000 </r>
       <r>    1.6559    1.0000 </r>
       <r>    1.6571    1.0000 </r>
       <r>    1.6597    1.0000 </r>
       <r>    1.6613    1.0000 </r>
       <r>    1.7136    1.0000 </r>
       <r>    1.7157    1.0000 </r>
       <r>    1.7191    1.0000 </r>
       <r>    2.2649    1.0000 </r>
       <r>    2.2679    1.0000 </r>
       <r>    2.2704    1.0000 </r>
       <r>    2.3641    1.0000 </r>
       <r>    2.3672    1.0000 </r>
       <r>    2.3706    1.0000 </r>
       <r>    2.3725    1.0000 </r>
       <r>    2.3744    1.0000 </r>
       <r>    2.3759    1.0000 </r>
       <r>    2.4212    1.0000 </r>
       <r>    2.4259    1.0000 </r>
       <r>    2.4282    1.0000 </r>
       <r>    2.7275    1.0000 </r>
       <r>    2.7332    1.0000 </r>
       <r>    2.7345    1.0000 </r>
       <r>    2.7359    1.0000 </r>
       <r>    2.7369    1.0000 </r>
       <r>    2.7416    1.0000 </r>
       <r>    2.9971    1.0000 </r>
       <r>    2.9989    1.0000 </r>
       <r>    3.0017    1.0000 </r>
       <r>    3.0095    1.0000 </r>
       <r>    3.0137    1.0000 </r>
       <r>    3.0173    1.0000 </r>
       <r>    3.3582    1.0000 </r>
       <r>    3.3619    1.0000 </r>
       <r>    3.3656    1.0000 </r>
       <r>    3.3803    1.0000 </r>
       <r>    3.3841    1.0000 </r>
       <r>    3.3888    1.0000 </r>
       <r>    3.4632    1.0000 </r>
       <r>    3.4663    1.0000 </r>
       <r>    3.4702    1.0000 </r>
       <r>    3.7341    1.0000 </r>
       <r>    3.7376    1.0000 </r>
       <r>    3.7412    1.0000 </r>
       <r>    3.7416    1.0000 </r>
       <r>    3.7442    1.0000 </r>
       <r>    3.7491    1.0000 </r>
       <r>    3.7771    1.0000 </r>
       <r>    3.7802    1.0000 </r>
       <r>    3.7847    1.0000 </r>
       <r>    4.0406    1.0000 </r>
       <r>    4.0948    1.0000 </r>
       <r>    4.0976    1.0000 </r>
       <r>    4.1014    1.0000 </r>
       <r>    4.3372    1.0000 </r>
       <r>    4.3407    1.0000 </r>
       <r>    4.3450    1.0000 </r>
       <r>    4.4024    1.0000 </r>
       <r>    4.4053    1.0000 </r>
       <r>    4.4102    1.0000 </r>
       <r>    4.5588    1.0000 </r>
       <r>    4.5669    1.0000 </r>
       <r>    4.8652    1.0000 </r>
       <r>    4.8696    1.0000 </r>
       <r>    4.8755    1.0000 </r>
       <r>    5.3451    1.0000 </r>
       <r>    5.3543    1.0000 </r>
       <r>    6.5603    0.0000 </r>
       <r>    6.5628    0.0000 </r>
       <r>    6.5670    0.0000 </r>
       <r>    7.0005    0.0000 </r>
       <r>    7.0032    0.0000 </r>
       <r>    7.0097    0.0000 </r>
       <r>    7.2337    0.0000 </r>
       <r>    7.4874    0.0000 </r>
       <r>    7.4894    0.0000 </r>
       <r>    7.4953    0.0000 </r>
       <r>    7.6153    0.0000 </r>
       <r>    7.6196    0.0000 </r>
       <r>    7.6237    0.0000 </r>
       <r>    7.7769    0.0000 </r>
       <r>    7.7794    0.0000 </r>
       <r>    7.7828    0.0000 </r>
       <r>    7.7989    0.0000 </r>
       <r>    7.8000    0.0000 </r>
       <r>    7.8050    0.0000 </r>
       <r>    8.0229    0.0000 </r>
       <r>    8.0267    0.0000 </r>
       <r>    8.0301    0.0000 </r>
       <r>    8.0319    0.0000 </r>
       <r>    8.0339    0.0000 </r>
       <r>    8.0375    0.0000 </r>
       <r>    8.0816    0.0000 </r>
       <r>    8.2923    0.0000 </r>
       <r>    8.2944    0.0000 </r>
       <r>    8.2984    0.0000 </r>
       <r>    8.4934    0.0000 </r>
       <r>    8.5006    0.0000 </r>
       <r>    8.5024    0.0000 </r>
       <r>    8.5043    0.0000 </r>
       <r>    8.5074    0.0000 </r>
       <r>    8.5161    0.0000 </r>
       <r>    8.5395    0.0000 </r>
      </set>
     </set>
    </set>
   </array>
  </eigenvalues>
  <separator name="orbital magnetization" >
   <v name="MAGDIPOLOUT">      0.00000000      0.00000000      0.00000000</v>
  </separator>
  <dos>
   <i name="efermi">      5.59813245 </i>
   <total>
    <array>
     <dimension dim="1">gridpoints</dimension>
     <dimension dim="2">spin</dimension>
     <field>energy</field>
     <field>total</field>
     <field>integrated</field>
     <set>
      <set comment="spin 1">
       <r>    -6.7202     0.0000     0.0000 </r>
       <r>    -6.6669     0.0000     0.0000 </r>
       <r>    -6.6136     0.0000     0.0000 </r>
       <r>    -6.5603     0.0000     0.0000 </r>
       <r>    -6.5070     0.0000     0.0000 </r>
       <r>    -6.4536     0.0000     0.0000 </r>
       <r>    -6.4003     0.0000     0.0000 </r>
       <r>    -6.3470     0.0000     0.0000 </r>
       <r>    -6.2937     0.0000     0.0000 </r>
       <r>    -6.2404     0.0000     0.0000 </r>
       <r>    -6.1871     0.0000     0.0000 </r>
       <r>    -6.1338     0.0013     0.0001 </r>
       <r>    -6.0805     0.2527     0.0135 </r>
       <r>    -6.0272     6.0554     0.3364 </r>
       <r>    -5.9738    20.2379     1.4153 </r>
       <r>    -5.9205    10.2188     1.9601 </r>
       <r>    -5.8672     0.7422     1.9996 </r>
       <r>    -5.8139     0.0069     2.0000 </r>
       <r>    -5.7606     0.0000     2.0000 </r>
       <r>    -5.7073     0.0000     2.0000 </r>
       <r>    -5.6540     0.0000     2.0000 </r>
       <r>    -5.6007     0.0071     2.0004 </r>
       <r>    -5.5473     1.1061     2.0593 </r>
       <r>    -5.4940    21.8918     3.2264 </r>
       <r>    -5.4407    61.5469     6.5076 </r>
       <r>    -5.3874    26.3597     7.9129 </r>
       <r>    -5.3341     1.6213     7.9993 </r>
       <r>    -5.2808     0.0127     8.0000 </r>
       <r>    -5.2275     0.0000     8.0000 </r>
       <r>    -5.1742     0.0000     8.0000 </r>
       <r>    -5.1209     0.0007     8.0000 </r>
       <r>    -5.0675     0.2237     8.0120 </r>
       <r>    -5.0142     9.2984     8.5077 </r>
       <r>    -4.9609    52.5637    11.3099 </r>
       <r>    -4.9076    44.7094    13.6935 </r>
       <r>    -4.8543     5.6543    13.9949 </r>
       <r>    -4.8010     0.0952    14.0000 </r>
       <r>    -4.7477     0.0002    14.0000 </r>
       <r>    -4.6944     0.0001    14.0000 </r>
       <r>    -4.6411     0.0393    14.0021 </r>
       <r>    -4.5877     2.1516    14.1168 </r>
       <r>    -4.5344    15.8809    14.9634 </r>
       <r>    -4.4811    26.2114    16.3608 </r>
       <r>    -4.4278    55.3104    19.3095 </r>
       <r>    -4.3745    44.7300    21.6941 </r>
       <r>    -4.3212     5.6421    21.9949 </r>
       <r>    -4.2679     0.0949    22.0000 </r>
       <r>    -4.2146     0.0002    22.0000 </r>
       <r>    -4.1612     0.0057    22.0003 </r>
       <r>    -4.1079     1.1662    22.0625 </r>
       <r>    -4.0546    30.9107    23.7104 </r>
       <r>    -4.0013   117.4411    29.9714 </r>
       <r>    -3.9480    69.3912    33.6707 </r>
       <r>    -3.8947     8.7769    34.1386 </r>
       <r>    -3.8414    32.8849    35.8918 </r>
       <r>    -3.7881    59.7426    39.0768 </r>
       <r>    -3.7348    16.6588    39.9649 </r>
       <r>    -3.6814     0.6555    39.9998 </r>
       <r>    -3.6281     0.0032    40.0000 </r>
       <r>    -3.5748     0.0000    40.0000 </r>
       <r>    -3.5215     0.0000    40.0000 </r>
       <r>    -3.4682     0.0046    40.0002 </r>
       <r>    -3.4149     0.8243    40.0442 </r>
       <r>    -3.3616    18.8147    41.0472 </r>
       <r>    -3.3083    60.7546    44.2862 </r>
       <r>    -3.2549    29.9769    45.8843 </r>
       <r>    -3.2016     2.1505    45.9989 </r>
       <r>    -3.1483     0.0200    46.0000 </r>
       <r>    -3.0950     0.0076    46.0004 </r>
       <r>    -3.0417     1.1399    46.0612 </r>
       <r>    -2.9884    22.0397    47.2361 </r>
       <r>    -2.9351    61.3687    50.5078 </r>
       <r>    -2.8818    27.5442    51.9762 </r>
       <r>    -2.8285    33.2185    53.7472 </r>
       <r>    -2.7751   118.0162    60.0388 </r>
       <r>    -2.7218    68.3353    63.6819 </r>
       <r>    -2.6685     5.8989    63.9964 </r>
       <r>    -2.6152     0.0678    64.0000 </r>
       <r>    -2.5619     0.0001    64.0000 </r>
       <r>    -2.5086     0.0000    64.0000 </r>
       <r>    -2.4553     0.0000    64.0000 </r>
       <r>    -2.4020     0.0000    64.0000 </r>
       <r>    -2.3486     0.0000    64.0000 </r>
       <r>    -2.2953     0.0000    64.0000 </r>
       <r>    -2.2420     0.0000    64.0000 </r>
       <r>    -2.1887     0.0000    64.0000 </r>
       <r>    -2.1354     0.0000    64.0000 </r>
       <r>    -2.0821     0.0000    64.0000 </r>
       <r>    -2.0288     0.0000    64.0000 </r>
       <r>    -1.9755     0.0000    64.0000 </r>
       <r>    -1.9222     0.0000    64.0000 </r>
       <r>    -1.8688     0.0000    64.0000 </r>
       <r>    -1.8155     0.0000    64.0000 </r>
       <r>    -1.7622     0.0000    64.0000 </r>
       <r>    -1.7089     0.0000    64.0000 </r>
       <r>    -1.6556     0.0000    64.0000 </r>
       <r>    -1.6023     0.0000    64.0000 </r>
       <r>    -1.5490     0.0000    64.0000 </r>
       <r>    -1.4957     0.0000    64.0000 </r>
       <r>    -1.4423     0.0000    64.0000 </r>
       <r>    -1.3890     0.0097    64.0005 </r>
       <r>    -1.3357     1.6752    64.0898 </r>
       <r>    -1.2824    37.4480    66.0862 </r>
       <r>    -1.2291   122.3762    72.6103 </r>
       <r>    -1.1758    86.3904    77.2160 </r>
       <r>    -1.1225    66.5217    80.7623 </r>
       <r>    -1.0692    39.2179    82.8531 </r>
       <r>    -1.0159    63.7377    86.2511 </r>
       <r>    -0.9625    67.0946    89.8280 </r>
       <r>    -0.9092    61.6406    93.1142 </r>
       <r>    -0.8559    15.9893    93.9666 </r>
       <r>    -0.8026     0.6234    93.9998 </r>
       <r>    -0.7493     0.0031    94.0000 </r>
       <r>    -0.6960     0.0000    94.0000 </r>
       <r>    -0.6427     0.0000    94.0000 </r>
       <r>    -0.5894     0.0000    94.0000 </r>
       <r>    -0.5360     0.0000    94.0000 </r>
       <r>    -0.4827     0.0000    94.0000 </r>
       <r>    -0.4294     0.0000    94.0000 </r>
       <r>    -0.3761     0.0039    94.0002 </r>
       <r>    -0.3228     0.5096    94.0274 </r>
       <r>    -0.2695     8.7867    94.4958 </r>
       <r>    -0.2162    33.4715    96.2802 </r>
       <r>    -0.1629    99.9830   101.6105 </r>
       <r>    -0.1096   102.1011   107.0537 </r>
       <r>    -0.0562    17.3349   107.9778 </r>
       <r>    -0.0029     0.4143   107.9999 </r>
       <r>     0.0504     0.0012   108.0000 </r>
       <r>     0.1037     0.0000   108.0000 </r>
       <r>     0.1570     0.0000   108.0000 </r>
       <r>     0.2103     0.0000   108.0000 </r>
       <r>     0.2636     0.0000   108.0000 </r>
       <r>     0.3169     0.0000   108.0000 </r>
       <r>     0.3703     0.0000   108.0000 </r>
       <r>     0.4236     0.0000   108.0000 </r>
       <r>     0.4769     0.0000   108.0000 </r>
       <r>     0.5302     0.0000   108.0000 </r>
       <r>     0.5835     0.0136   108.0007 </r>
       <r>     0.6368     1.6548   108.0889 </r>
       <r>     0.6901    26.3353   109.4929 </r>
       <r>     0.7434    61.2900   112.7604 </r>
       <r>     0.7967    22.0916   113.9381 </r>
       <r>     0.8501     1.1526   113.9996 </r>
       <r>     0.9034     0.0106   114.0002 </r>
       <r>     0.9567     0.6044   114.0324 </r>
       <r>     1.0100    16.0252   114.8867 </r>
       <r>     1.0633    59.4833   118.0579 </r>
       <r>     1.1166    33.6218   119.8503 </r>
       <r>     1.1699     2.7781   119.9984 </r>
       <r>     1.2232     0.0299   120.0000 </r>
       <r>     1.2766     0.0000   120.0000 </r>
       <r>     1.3299     0.0000   120.0000 </r>
       <r>     1.3832     0.0000   120.0000 </r>
       <r>     1.4365     0.0000   120.0000 </r>
       <r>     1.4898     0.0003   120.0000 </r>
       <r>     1.5431     0.1503   120.0080 </r>
       <r>     1.5964     9.8204   120.5316 </r>
       <r>     1.6497    87.9907   125.2225 </r>
       <r>     1.7030   145.3760   132.9728 </r>
       <r>     1.7564    79.2855   137.1996 </r>
       <r>     1.8097    14.5446   137.9750 </r>
       <r>     1.8630     0.4672   137.9999 </r>
       <r>     1.9163     0.0019   138.0000 </r>
       <r>     1.9696     0.0000   138.0000 </r>
       <r>     2.0229     0.0000   138.0000 </r>
       <r>     2.0762     0.0000   138.0000 </r>
       <r>     2.1295     0.0055   138.0003 </r>
       <r>     2.1829     0.9321   138.0500 </r>
       <r>     2.2362    20.0903   139.1210 </r>
       <r>     2.2895    63.6766   142.5157 </r>
       <r>     2.3428    75.6054   146.5464 </r>
       <r>     2.3961   146.9405   154.3800 </r>
       <r>     2.4494   112.0882   160.3557 </r>
       <r>     2.5027    29.1997   161.9123 </r>
       <r>     2.5560     1.6315   161.9993 </r>
       <r>     2.6093     0.0585   162.0024 </r>
       <r>     2.6627     4.6695   162.2514 </r>
       <r>     2.7160    62.0652   165.5602 </r>
       <r>     2.7693   120.7518   171.9977 </r>
       <r>     2.8226    36.0269   173.9183 </r>
       <r>     2.8759     1.5578   174.0014 </r>
       <r>     2.9292     3.6670   174.1969 </r>
       <r>     2.9825    53.6975   177.0596 </r>
       <r>     3.0358   120.9518   183.5077 </r>
       <r>     3.0891    44.2615   185.8674 </r>
       <r>     3.1425     2.4688   185.9990 </r>
       <r>     3.1958     0.0188   186.0000 </r>
       <r>     3.2491     0.0909   186.0049 </r>
       <r>     3.3024     6.3706   186.3445 </r>
       <r>     3.3557    65.7672   189.8506 </r>
       <r>     3.4090   120.7970   196.2905 </r>
       <r>     3.4623    81.0566   200.6118 </r>
       <r>     3.5156    54.1778   203.5001 </r>
       <r>     3.5690     9.1588   203.9884 </r>
       <r>     3.6223     0.3138   204.0051 </r>
       <r>     3.6756     7.4707   204.4034 </r>
       <r>     3.7289    82.5448   208.8040 </r>
       <r>     3.7822   164.7838   217.5889 </r>
       <r>     3.8355    74.9129   221.5826 </r>
       <r>     3.8888     7.6951   221.9929 </r>
       <r>     3.9421     0.2372   222.0055 </r>
       <r>     3.9954     3.9300   222.2150 </r>
       <r>     4.0488    27.4775   223.6799 </r>
       <r>     4.1021    65.9200   227.1942 </r>
       <r>     4.1554    46.6680   229.6822 </r>
       <r>     4.2087     5.8709   229.9952 </r>
       <r>     4.2620     1.5518   230.0779 </r>
       <r>     4.3153    25.5503   231.4400 </r>
       <r>     4.3686    77.6725   235.5809 </r>
       <r>     4.4219    82.3646   239.9719 </r>
       <r>     4.4753    35.6083   241.8702 </r>
       <r>     4.5286    14.9259   242.6659 </r>
       <r>     4.5819    40.2863   244.8137 </r>
       <r>     4.6352    20.6823   245.9163 </r>
       <r>     4.6885     1.5550   245.9992 </r>
       <r>     4.7418     0.0326   246.0009 </r>
       <r>     4.7951     1.9527   246.1050 </r>
       <r>     4.8484    28.5643   247.6278 </r>
       <r>     4.9017    61.0083   250.8803 </r>
       <r>     4.9551    20.0543   251.9494 </r>
       <r>     5.0084     0.9430   251.9997 </r>
       <r>     5.0617     0.0057   252.0000 </r>
       <r>     5.1150     0.0000   252.0000 </r>
       <r>     5.1683     0.0000   252.0000 </r>
       <r>     5.2216     0.0119   252.0006 </r>
       <r>     5.2749     1.3242   252.0712 </r>
       <r>     5.3282    19.1560   253.0925 </r>
       <r>     5.3816    40.6152   255.2577 </r>
       <r>     5.4349    13.2949   255.9665 </r>
       <r>     5.4882     0.6244   255.9998 </r>
       <r>     5.5415     0.0037   256.0000 </r>
       <r>     5.5948     0.0000   256.0000 </r>
       <r>     5.6481     0.0000   256.0000 </r>
       <r>     5.7014     0.0000   256.0000 </r>
       <r>     5.7547     0.0000   256.0000 </r>
       <r>     5.8080     0.0000   256.0000 </r>
       <r>     5.8614     0.0000   256.0000 </r>
       <r>     5.9147     0.0000   256.0000 </r>
       <r>     5.9680     0.0000   256.0000 </r>
       <r>     6.0213     0.0000   256.0000 </r>
       <r>     6.0746     0.0000   256.0000 </r>
       <r>     6.1279     0.0000   256.0000 </r>
       <r>     6.1812     0.0000   256.0000 </r>
       <r>     6.2345     0.0000   256.0000 </r>
       <r>     6.2879     0.0000   256.0000 </r>
       <r>     6.3412     0.0000   256.0000 </r>
       <r>     6.3945     0.0001   256.0000 </r>
       <r>     6.4478     0.0627   256.0033 </r>
       <r>     6.5011     4.3865   256.2372 </r>
       <r>     6.5544    40.5868   258.4010 </r>
       <r>     6.6077    55.6221   261.3663 </r>
       <r>     6.6610    11.5553   261.9823 </r>
       <r>     6.7143     0.3310   261.9999 </r>
       <r>     6.7677     0.0012   262.0000 </r>
       <r>     6.8210     0.0000   262.0000 </r>
       <r>     6.8743     0.0140   262.0007 </r>
       <r>     6.9276     1.7057   262.0917 </r>
       <r>     6.9809    26.8610   263.5237 </r>
       <r>     7.0342    61.3565   266.7947 </r>
       <r>     7.0875    21.5214   267.9421 </r>
       <r>     7.1408     1.2422   268.0083 </r>
       <r>     7.1942     4.7835   268.2633 </r>
       <r>     7.2475    19.4920   269.3024 </r>
       <r>     7.3008    11.9970   269.9420 </r>
       <r>     7.3541     1.0817   269.9997 </r>
       <r>     7.4074     1.0733   270.0569 </r>
       <r>     7.4607    21.3494   271.1951 </r>
       <r>     7.5140    61.5284   274.4753 </r>
       <r>     7.5673    34.8263   276.3319 </r>
       <r>     7.6206    51.4037   279.0723 </r>
       <r>     7.6740    48.0193   281.6323 </r>
       <r>     7.7273    16.6360   282.5192 </r>
       <r>     7.7806    79.0898   286.7356 </r>
       <r>     7.8339   109.0358   292.5485 </r>
       <r>     7.8872    26.2323   293.9470 </r>
       <r>     7.9405     2.2972   294.0695 </r>
       <r>     7.9938    33.1369   295.8361 </r>
       <r>     8.0471   124.7947   302.4891 </r>
       <r>     8.1005    86.6706   307.1096 </r>
       <r>     8.1538    15.8716   307.9558 </r>
       <r>     8.2071     1.5581   308.0388 </r>
       <r>     8.2604    17.7714   308.9863 </r>
       <r>     8.3137    60.4349   312.2082 </r>
       <r>     8.3670    31.2609   313.8747 </r>
       <r>     8.4203     4.5465   314.1171 </r>
       <r>     8.4736    43.0661   316.4130 </r>
       <r>     8.5269   132.3858   323.4708 </r>
       <r>     8.5803    75.6801   327.5054 </r>
       <r>     8.6336     9.0570   327.9882 </r>
       <r>     8.6869     0.2198   328.0000 </r>
       <r>     8.7402     0.0008   328.0000 </r>
       <r>     8.7935     0.0000   328.0000 </r>
       <r>     8.8468     0.0000   328.0000 </r>
       <r>     8.9001     0.0000   328.0000 </r>
       <r>     8.9534     0.0000   328.0000 </r>
       <r>     9.0068     0.0000   328.0000 </r>
       <r>     9.0601     0.0000   328.0000 </r>
       <r>     9.1134     0.0000   328.0000 </r>
       <r>     9.1667     0.0000   328.0000 </r>
       <r>     9.2200     0.0000   328.0000 </r>
       <r>     9.2733     0.0000   328.0000 </r>
      </set>
     </set>
    </array>
   </total>
  </dos>
 </calculation>
 <structure name="finalpos" >
  <crystal>
   <varray name="basis" >
    <v>      10.93252578       0.00000000       0.00000000 </v>
    <v>       0.00000000      10.93252578       0.00000000 </v>
    <v>       0.00000000       0.00000000      10.93252578 </v>
   </varray>
   <i name="volume">   1306.65679237 </i>
   <varray name="rec_basis" >
    <v>       0.09147017       0.00000000       0.00000000 </v>
    <v>       0.00000000       0.09147017       0.00000000 </v>
    <v>       0.00000000       0.00000000       0.09147017 </v>
   </varray>
  </crystal>
  <varray name="positions" >
   <v>       0.44024411       0.43750000       0.43750000 </v>
   <v>       0.93750000       0.43750000       0.43750000 </v>
   <v>       0.43750000       0.93750000       0.43750000 </v>
   <v>       0.93750000       0.93750000       0.43750000 </v>
   <v>       0.43750000       0.43750000       0.93750000 </v>
   <v>       0.93750000       0.43750000       0.93750000 </v>
   <v>       0.43750000       0.93750000       0.93750000 </v>
   <v>       0.93750000       0.93750000       0.93750000 </v>
   <v>       0.43750000       0.18750000       0.18750000 </v>
   <v>       0.93750000       0.18750000       0.18750000 </v>
   <v>       0.43750000       0.68750000       0.18750000 </v>
   <v>       0.93750000       0.68750000       0.18750000 </v>
   <v>       0.43750000       0.18750000       0.68750000 </v>
   <v>       0.93750000       0.18750000       0.68750000 </v>
   <v>       0.43750000       0.68750000       0.68750000 </v>
   <v>       0.93750000       0.68750000       0.68750000 </v>
   <v>       0.18750000       0.43750000       0.18750000 </v>
   <v>       0.68750000       0.43750000       0.18750000 </v>
   <v>       0.18750000       0.93750000       0.18750000 </v>
   <v>       0.68750000       0.93750000       0.18750000 </v>
   <v>       0.18750000       0.43750000       0.68750000 </v>
   <v>       0.68750000       0.43750000       0.68750000 </v>
   <v>       0.18750000       0.93750000       0.68750000 </v>
   <v>       0.68750000       0.93750000       0.68750000 </v>
   <v>       0.18750000       0.18750000       0.43750000 </v>
   <v>       0.68750000       0.18750000       0.43750000 </v>
   <v>       0.18750000       0.68750000       0.43750000 </v>
   <v>       0.68750000       0.68750000       0.43750000 </v>
   <v>       0.18750000       0.18750000       0.93750000 </v>
   <v>       0.68750000       0.18750000       0.93750000 </v>
   <v>       0.18750000       0.68750000       0.93750000 </v>
   <v>       0.68750000       0.68750000       0.93750000 </v>
   <v>       0.06250000       0.06250000       0.06250000 </v>
   <v>       0.56250000       0.06250000       0.06250000 </v>
   <v>       0.06250000       0.56250000       0.06250000 </v>
   <v>       0.56250000       0.56250000       0.06250000 </v>
   <v>       0.06250000       0.06250000       0.56250000 </v>
   <v>       0.56250000       0.06250000       0.56250000 </v>
   <v>       0.06250000       0.56250000       0.56250000 </v>
   <v>       0.56250000       0.56250000       0.56250000 </v>
   <v>       0.06250000       0.31250000       0.31250000 </v>
   <v>       0.56250000       0.31250000       0.31250000 </v>
   <v>       0.06250000       0.81250000       0.31250000 </v>
   <v>       0.56250000       0.81250000       0.31250000 </v>
   <v>       0.06250000       0.31250000       0.81250000 </v>
   <v>       0.56250000       0.31250000       0.81250000 </v>
   <v>       0.06250000       0.81250000       0.81250000 </v>
   <v>       0.56250000       0.81250000       0.81250000 </v>
   <v>       0.31250000       0.06250000       0.31250000 </v>
   <v>       0.81250000       0.06250000       0.31250000 </v>
   <v>       0.31250000       0.56250000       0.31250000 </v>
   <v>       0.81250000       0.56524411       0.31250000 </v>
   <v>       0.31250000       0.06250000       0.81250000 </v>
   <v>       0.81250000       0.06250000       0.81250000 </v>
   <v>       0.31250000       0.56250000       0.81250000 </v>
   <v>       0.81250000       0.56250000       0.81250000 </v>
   <v>       0.31250000       0.31250000       0.06250000 </v>
   <v>       0.81250000       0.31250000       0.06250000 </v>
   <v>       0.31250000       0.81250000       0.06250000 </v>
   <v>       0.81250000       0.81250000       0.06250000 </v>
   <v>       0.31250000       0.31250000       0.56250000 </v>
   <v>       0.81250000       0.31250000       0.56250000 </v>
   <v>       0.31250000       0.81250000       0.56250000 </v>
   <v>       0.81250000       0.81250000       0.56250000 </v>
  </varray>
 </structure>
</modeling>
