<?xml version="1.0" encoding="ISO-8859-1"?>
<modeling>
 <generator>
  <i name="program" type="string">vasp </i>
  <i name="version" type="string">5.4.1  </i>
  <i name="subversion" type="string">05Feb16 (build Mar 26 2016 11:58:25) complex                          parallel </i>
  <i name="platform" type="string">IFC91_ompi </i>
  <i name="date" type="string">2017 03 12 </i>
  <i name="time" type="string">12:17:11 </i>
 </generator>
 <incar>
  <i type="string" name="PREC">accurate</i>
  <i type="int" name="IALGO">    38</i>
  <i type="logical" name="ADDGRID"> T  </i>
  <i type="int" name="NELMIN">     5</i>
  <i type="int" name="IBRION">    -1</i>
  <i name="EDIFF">      0.00000001</i>
  <i name="ENCUT">    300.00000000</i>
  <i type="logical" name="LREAL"> F  </i>
  <i type="int" name="ISMEAR">     0</i>
  <i name="SIGMA">      0.05000000</i>
  <i type="logical" name="LWAVE"> F  </i>
  <i type="logical" name="LCHARG"> F  </i>
  <v type="int" name="KPOINT_BSE">    -1     0     0     0</v>
 </incar>
 <kpoints>
  <generation param="Monkhorst-Pack">
   <v type="int" name="divisions">       2        2        2 </v>
   <v name="usershift">      0.00000000       0.00000000       0.00000000 </v>
   <v name="genvec1">      0.50000000       0.00000000       0.00000000 </v>
   <v name="genvec2">      0.00000000       0.50000000       0.00000000 </v>
   <v name="genvec3">      0.00000000       0.00000000       0.50000000 </v>
   <v name="shift">      0.50000000       0.50000000       0.50000000 </v>
  </generation>
  <varray name="kpointlist" >
   <v>       0.25000000       0.25000000       0.25000000 </v>
   <v>      -0.25000000       0.25000000       0.25000000 </v>
   <v>       0.25000000      -0.25000000       0.25000000 </v>
  </varray>
  <varray name="weights" >
   <v>       0.25000000 </v>
   <v>       0.25000000 </v>
   <v>       0.50000000 </v>
  </varray>
 </kpoints>
 <parameters>
  <separator name="general" >
   <i type="string" name="SYSTEM">unknown system</i>
   <i type="logical" name="LCOMPAT"> F  </i>
  </separator>
  <separator name="electronic" >
   <i type="string" name="PREC">accura</i>
   <i name="ENMAX">    300.00000000</i>
   <i name="ENAUG">    322.06900000</i>
   <i name="EDIFF">      0.00000001</i>
   <i type="int" name="IALGO">    38</i>
   <i type="int" name="IWAVPR">    10</i>
   <i type="int" name="NBANDS">   164</i>
   <i name="NELECT">    256.00000000</i>
   <i type="int" name="TURBO">     0</i>
   <i type="int" name="IRESTART">     0</i>
   <i type="int" name="NREBOOT">     0</i>
   <i type="int" name="NMIN">     0</i>
   <i name="EREF">      0.00000000</i>
   <separator name="electronic smearing" >
    <i type="int" name="ISMEAR">     0</i>
    <i name="SIGMA">      0.05000000</i>
    <i name="KSPACING">      0.50000000</i>
    <i type="logical" name="KGAMMA"> T  </i>
   </separator>
   <separator name="electronic projectors" >
    <i type="logical" name="LREAL"> F  </i>
    <v name="ROPT">      0.00000000</v>
    <i type="int" name="LMAXPAW">  -100</i>
    <i type="int" name="LMAXMIX">     2</i>
    <i type="logical" name="NLSPLINE"> F  </i>
   </separator>
   <separator name="electronic startup" >
    <i type="int" name="ISTART">     0</i>
    <i type="int" name="ICHARG">     2</i>
    <i type="int" name="INIWAV">     1</i>
   </separator>
   <separator name="electronic spin" >
    <i type="int" name="ISPIN">     1</i>
    <i type="logical" name="LNONCOLLINEAR"> F  </i>
    <v name="MAGMOM">      1.00000000      1.00000000      1.00000000      1.00000000      1.00000000      1.00000000      1.00000000      1.00000000      1.00000000      1.00000000      1.00000000      1.00000000      1.00000000      1.00000000      1.00000000      1.00000000      1.00000000      1.00000000      1.00000000      1.00000000
      1.00000000      1.00000000      1.00000000      1.00000000      1.00000000      1.00000000      1.00000000      1.00000000      1.00000000      1.00000000      1.00000000      1.00000000      1.00000000      1.00000000      1.00000000      1.00000000      1.00000000      1.00000000      1.00000000      1.00000000
      1.00000000      1.00000000      1.00000000      1.00000000      1.00000000      1.00000000      1.00000000      1.00000000      1.00000000      1.00000000      1.00000000      1.00000000      1.00000000      1.00000000      1.00000000      1.00000000      1.00000000      1.00000000      1.00000000      1.00000000
      1.00000000      1.00000000      1.00000000      1.00000000</v>
    <i name="NUPDOWN">     -1.00000000</i>
    <i type="logical" name="LSORBIT"> F  </i>
    <v name="SAXIS">      0.00000000      0.00000000      1.00000000</v>
    <i type="logical" name="LSPIRAL"> F  </i>
    <v name="QSPIRAL">      0.00000000      0.00000000      0.00000000</v>
    <i type="logical" name="LZEROZ"> F  </i>
   </separator>
   <separator name="electronic exchange-correlation" >
    <i type="logical" name="LASPH"> F  </i>
    <i type="logical" name="LMETAGGA"> F  </i>
   </separator>
   <separator name="electronic convergence" >
    <i type="int" name="NELM">    60</i>
    <i type="int" name="NELMDL">    -5</i>
    <i type="int" name="NELMIN">     5</i>
    <i name="ENINI">    300.00000000</i>
    <separator name="electronic convergence detail" >
     <i type="logical" name="LDIAG"> T  </i>
     <i type="logical" name="LSUBROT"> F  </i>
     <i name="WEIMIN">      0.00000000</i>
     <i name="EBREAK">      0.00000000</i>
     <i name="DEPER">      0.30000000</i>
     <i type="int" name="NRMM">     4</i>
     <i name="TIME">      0.40000000</i>
    </separator>
   </separator>
   <separator name="electronic mixer" >
    <i name="AMIX">      0.40000000</i>
    <i name="BMIX">      1.00000000</i>
    <i name="AMIN">      0.10000000</i>
    <i name="AMIX_MAG">      1.60000000</i>
    <i name="BMIX_MAG">      1.00000000</i>
    <separator name="electronic mixer details" >
     <i type="int" name="IMIX">     4</i>
     <i type="logical" name="MIXFIRST"> F  </i>
     <i type="int" name="MAXMIX">   -45</i>
     <i name="WC">    100.00000000</i>
     <i type="int" name="INIMIX">     1</i>
     <i type="int" name="MIXPRE">     1</i>
     <i type="int" name="MREMOVE">     5</i>
    </separator>
   </separator>
   <separator name="electronic dipolcorrection" >
    <i type="logical" name="LDIPOL"> F  </i>
    <i type="logical" name="LMONO"> F  </i>
    <i type="int" name="IDIPOL">     0</i>
    <i name="EPSILON">      1.00000000</i>
    <v name="DIPOL">   -100.00000000   -100.00000000   -100.00000000</v>
    <i name="EFIELD">      0.00000000</i>
   </separator>
  </separator>
  <separator name="grids" >
   <i type="int" name="NGX">    64</i>
   <i type="int" name="NGY">    64</i>
   <i type="int" name="NGZ">    64</i>
   <i type="int" name="NGXF">   128</i>
   <i type="int" name="NGYF">   128</i>
   <i type="int" name="NGZF">   128</i>
   <i type="logical" name="ADDGRID"> T  </i>
  </separator>
  <separator name="ionic" >
   <i type="int" name="NSW">     0</i>
   <i type="int" name="IBRION">    -1</i>
   <i type="int" name="ISIF">     2</i>
   <i name="PSTRESS">      0.00000000</i>
   <i name="EDIFFG">      0.00000010</i>
   <i type="int" name="NFREE">     0</i>
   <i name="POTIM">      0.50000000</i>
   <i name="SMASS">     -3.00000000</i>
   <i name="SCALEE">      1.00000000</i>
  </separator>
  <separator name="ionic md" >
   <i name="TEBEG">      0.00010000</i>
   <i name="TEEND">      0.00010000</i>
   <i type="int" name="NBLOCK">     1</i>
   <i type="int" name="KBLOCK">     1</i>
   <i type="int" name="NPACO">   256</i>
   <i name="APACO">     16.00000000</i>
  </separator>
  <separator name="symmetry" >
   <i type="int" name="ISYM">     2</i>
   <i name="SYMPREC">      0.00001000</i>
  </separator>
  <separator name="dos" >
   <i type="logical" name="LORBIT"> F  </i>
   <v name="RWIGS">     -1.00000000</v>
   <i type="int" name="NEDOS">   301</i>
   <i name="EMIN">     10.00000000</i>
   <i name="EMAX">    -10.00000000</i>
   <i name="EFERMI">      0.00000000</i>
  </separator>
  <separator name="writing" >
   <i type="int" name="NWRITE">     2</i>
   <i type="logical" name="LWAVE"> F  </i>
   <i type="logical" name="LCHARG"> F  </i>
   <i type="logical" name="LPARD"> F  </i>
   <i type="logical" name="LVTOT"> F  </i>
   <i type="logical" name="LVHAR"> F  </i>
   <i type="logical" name="LELF"> F  </i>
   <i type="logical" name="LOPTICS"> F  </i>
   <v name="STM">      0.00000000      0.00000000      0.00000000      0.00000000      0.00000000      0.00000000      0.00000000</v>
  </separator>
  <separator name="performance" >
   <i type="int" name="NPAR">     4</i>
   <i type="int" name="NSIM">     4</i>
   <i type="int" name="NBLK">    -1</i>
   <i type="logical" name="LPLANE"> T  </i>
   <i type="logical" name="LSCALAPACK"> T  </i>
   <i type="logical" name="LSCAAWARE"> F  </i>
   <i type="logical" name="LSCALU"> F  </i>
   <i type="logical" name="LASYNC"> F  </i>
   <i type="logical" name="LORBITALREAL"> F  </i>
  </separator>
  <separator name="miscellaneous" >
   <i type="int" name="IDIOT">     3</i>
   <i type="logical" name="LMUSIC"> F  </i>
   <v name="POMASS">     28.08500000</v>
   <v name="DARWINR">      0.00000000</v>
   <v name="DARWINV">      1.00000000</v>
   <i type="logical" name="LCORR"> T  </i>
  </separator>
  <i type="logical" name="GGA_COMPAT"> T  </i>
  <i type="logical" name="LBERRY"> F  </i>
  <i type="int" name="ICORELEVEL">     0</i>
  <i type="logical" name="LDAU"> F  </i>
  <i type="int" name="I_CONSTRAINED_M">     0</i>
  <separator name="electronic exchange-correlation" >
   <i type="string" name="GGA">--</i>
   <i type="int" name="VOSKOWN">     0</i>
   <i type="logical" name="LHFCALC"> F  </i>
   <i type="string" name="PRECFOCK"></i>
   <i type="logical" name="LSYMGRAD"> F  </i>
   <i type="logical" name="LHFONE"> F  </i>
   <i type="logical" name="LRHFCALC"> F  </i>
   <i type="logical" name="LTHOMAS"> F  </i>
   <i type="logical" name="LMODELHF"> F  </i>
   <i name="ENCUT4O">     -1.00000000</i>
   <i type="int" name="EXXOEP">     0</i>
   <i type="int" name="FOURORBIT">     0</i>
   <i name="AEXX">      0.00000000</i>
   <i name="HFALPHA">      0.00000000</i>
   <i name="MCALPHA">      0.00000000</i>
   <i name="ALDAX">      1.00000000</i>
   <i name="AGGAX">      1.00000000</i>
   <i name="ALDAC">      1.00000000</i>
   <i name="AGGAC">      1.00000000</i>
   <i type="int" name="NKREDX">     1</i>
   <i type="int" name="NKREDY">     1</i>
   <i type="int" name="NKREDZ">     1</i>
   <i type="logical" name="SHIFTRED"> F  </i>
   <i type="logical" name="ODDONLY"> F  </i>
   <i type="logical" name="EVENONLY"> F  </i>
   <i type="int" name="LMAXFOCK">     0</i>
   <i type="int" name="NMAXFOCKAE">     0</i>
   <i type="logical" name="LFOCKAEDFT"> F  </i>
   <i name="HFSCREEN">      0.00000000</i>
   <i name="HFSCREENC">      0.00000000</i>
   <i type="int" name="NBANDSGWLOW">     0</i>
  </separator>
  <separator name="vdW DFT" >
   <i type="logical" name="LUSE_VDW"> F  </i>
   <i name="Zab_VDW">     -0.84910000</i>
   <i name="PARAM1">      0.12340000</i>
   <i name="PARAM2">      1.00000000</i>
   <i name="PARAM3">      0.00000000</i>
  </separator>
  <separator name="model GW" >
   <i type="int" name="MODEL_GW">     0</i>
   <i name="MODEL_EPS0">     12.24990743</i>
   <i name="MODEL_ALPHA">      1.00000000</i>
  </separator>
  <separator name="linear response parameters" >
   <i type="logical" name="LEPSILON"> F  </i>
   <i type="logical" name="LRPA"> F  </i>
   <i type="logical" name="LNABLA"> F  </i>
   <i type="logical" name="LVEL"> F  </i>
   <i type="int" name="KINTER">     0</i>
   <i name="CSHIFT">      0.10000000</i>
   <i name="OMEGAMAX">     -1.00000000</i>
   <i name="DEG_THRESHOLD">      0.00200000</i>
  </separator>
  <separator name="orbital magnetization" >
   <i type="logical" name="NUCIND"> F  </i>
   <v name="MAGPOS">      0.00000000      0.00000000      0.00000000</v>
   <i type="logical" name="LNICSALL"> T  </i>
   <i type="logical" name="ORBITALMAG"> F  </i>
   <i type="logical" name="LMAGBLOCH"> F  </i>
   <i type="logical" name="LCHIMAG"> F  </i>
   <i type="logical" name="LGAUGE"> T  </i>
   <i type="int" name="MAGATOM">     0</i>
   <v name="MAGDIPOL">      0.00000000      0.00000000      0.00000000</v>
   <v name="AVECCONST">      0.00000000      0.00000000      0.00000000</v>
  </separator>
  <separator name="response functions" >
   <i type="logical" name="LADDER"> F  </i>
   <i type="logical" name="LFXC"> F  </i>
   <i type="logical" name="LHARTREE"> T  </i>
   <i type="int" name="IBSE">     0</i>
   <v type="int" name="KPOINT">    -1     0     0     0</v>
   <i type="logical" name="LTCTE"> F  </i>
   <i type="logical" name="LTETE"> F  </i>
   <i type="logical" name="LTRIPLET"> F  </i>
   <i type="logical" name="LFXCEPS"> F  </i>
   <i type="logical" name="LFXHEG"> F  </i>
   <i type="int" name="NATURALO">     0</i>
   <i type="logical" name="L2ORDER"> F  </i>
   <i type="logical" name="LUSEW"> F  </i>
   <i name="ENCUTGW">     -2.00000000</i>
   <i name="ENCUTGWSOFT">     -2.00000000</i>
   <i name="ENCUTLF">     -1.00000000</i>
   <i type="int" name="LMAXMP2">    -1</i>
   <i name="SCISSOR">      0.00000000</i>
   <i type="int" name="NOMEGA">     0</i>
   <i type="int" name="NOMEGAR">     0</i>
   <i type="int" name="NBANDSGW">    -1</i>
   <i type="int" name="NBANDSO">    -1</i>
   <i type="int" name="NBANDSV">    -1</i>
   <i type="int" name="NELM">     1</i>
   <i type="int" name="NELMHF">     1</i>
   <i type="int" name="DIM">     3</i>
   <i type="int" name="ANTIRES">     0</i>
   <i name="OMEGAMAX">    -30.00000000</i>
   <i name="OMEGAMIN">    -30.00000000</i>
   <i name="OMEGATL">   -200.00000000</i>
   <i type="int" name="OMEGAGRID">     0</i>
   <i name="CSHIFT">     -0.10000000</i>
   <i type="logical" name="SELFENERGY"> F  </i>
   <i type="logical" name="LSPECTRAL"> F  </i>
   <i type="logical" name="LSPECTRALGW"> F  </i>
   <i type="logical" name="LSINGLES"> F  </i>
   <i type="logical" name="LFERMIGW"> F  </i>
   <i type="logical" name="ODDONLYGW"> F  </i>
   <i type="logical" name="EVENONLYGW"> F  </i>
   <i type="int" name="NKREDLFX">     1</i>
   <i type="int" name="NKREDLFY">     1</i>
   <i type="int" name="NKREDLFZ">     1</i>
   <i type="int" name="MAXMEM">  1800</i>
   <i type="int" name="TELESCOPE">     0</i>
   <i type="int" name="TAUPAR">     1</i>
   <i type="int" name="OMEGAPAR">    -1</i>
   <i name="LAMBDA">      1.00000000</i>
  </separator>
  <separator name="External order field" >
   <i name="OFIELD_KAPPA">      0.00000000</i>
   <v name="OFIELD_K">      0.00000000      0.00000000      0.00000000</v>
   <i name="OFIELD_Q6_NEAR">      0.00000000</i>
   <i name="OFIELD_Q6_FAR">      0.00000000</i>
   <i name="OFIELD_A">      0.00000000</i>
  </separator>
 </parameters>
 <atominfo>
  <atoms>      64 </atoms>
  <types>       1 </types>
  <array name="atoms" >
   <dimension dim="1">ion</dimension>
   <field type="string">element</field>
   <field type="int">atomtype</field>
   <set>
    <rc><c>Si</c><c>   1</c></rc>
    <rc><c>Si</c><c>   1</c></rc>
    <rc><c>Si</c><c>   1</c></rc>
    <rc><c>Si</c><c>   1</c></rc>
    <rc><c>Si</c><c>   1</c></rc>
    <rc><c>Si</c><c>   1</c></rc>
    <rc><c>Si</c><c>   1</c></rc>
    <rc><c>Si</c><c>   1</c></rc>
    <rc><c>Si</c><c>   1</c></rc>
    <rc><c>Si</c><c>   1</c></rc>
    <rc><c>Si</c><c>   1</c></rc>
    <rc><c>Si</c><c>   1</c></rc>
    <rc><c>Si</c><c>   1</c></rc>
    <rc><c>Si</c><c>   1</c></rc>
    <rc><c>Si</c><c>   1</c></rc>
    <rc><c>Si</c><c>   1</c></rc>
    <rc><c>Si</c><c>   1</c></rc>
    <rc><c>Si</c><c>   1</c></rc>
    <rc><c>Si</c><c>   1</c></rc>
    <rc><c>Si</c><c>   1</c></rc>
    <rc><c>Si</c><c>   1</c></rc>
    <rc><c>Si</c><c>   1</c></rc>
    <rc><c>Si</c><c>   1</c></rc>
    <rc><c>Si</c><c>   1</c></rc>
    <rc><c>Si</c><c>   1</c></rc>
    <rc><c>Si</c><c>   1</c></rc>
    <rc><c>Si</c><c>   1</c></rc>
    <rc><c>Si</c><c>   1</c></rc>
    <rc><c>Si</c><c>   1</c></rc>
    <rc><c>Si</c><c>   1</c></rc>
    <rc><c>Si</c><c>   1</c></rc>
    <rc><c>Si</c><c>   1</c></rc>
    <rc><c>Si</c><c>   1</c></rc>
    <rc><c>Si</c><c>   1</c></rc>
    <rc><c>Si</c><c>   1</c></rc>
    <rc><c>Si</c><c>   1</c></rc>
    <rc><c>Si</c><c>   1</c></rc>
    <rc><c>Si</c><c>   1</c></rc>
    <rc><c>Si</c><c>   1</c></rc>
    <rc><c>Si</c><c>   1</c></rc>
    <rc><c>Si</c><c>   1</c></rc>
    <rc><c>Si</c><c>   1</c></rc>
    <rc><c>Si</c><c>   1</c></rc>
    <rc><c>Si</c><c>   1</c></rc>
    <rc><c>Si</c><c>   1</c></rc>
    <rc><c>Si</c><c>   1</c></rc>
    <rc><c>Si</c><c>   1</c></rc>
    <rc><c>Si</c><c>   1</c></rc>
    <rc><c>Si</c><c>   1</c></rc>
    <rc><c>Si</c><c>   1</c></rc>
    <rc><c>Si</c><c>   1</c></rc>
    <rc><c>Si</c><c>   1</c></rc>
    <rc><c>Si</c><c>   1</c></rc>
    <rc><c>Si</c><c>   1</c></rc>
    <rc><c>Si</c><c>   1</c></rc>
    <rc><c>Si</c><c>   1</c></rc>
    <rc><c>Si</c><c>   1</c></rc>
    <rc><c>Si</c><c>   1</c></rc>
    <rc><c>Si</c><c>   1</c></rc>
    <rc><c>Si</c><c>   1</c></rc>
    <rc><c>Si</c><c>   1</c></rc>
    <rc><c>Si</c><c>   1</c></rc>
    <rc><c>Si</c><c>   1</c></rc>
    <rc><c>Si</c><c>   1</c></rc>
   </set>
  </array>
  <array name="atomtypes" >
   <dimension dim="1">type</dimension>
   <field type="int">atomspertype</field>
   <field type="string">element</field>
   <field>mass</field>
   <field>valence</field>
   <field type="string">pseudopotential</field>
   <set>
    <rc><c>  64</c><c>Si</c><c>     28.08500000</c><c>      4.00000000</c><c>  PAW_PBE Si 05Jan2001                  </c></rc>
   </set>
  </array>
 </atominfo>
 <structure name="initialpos" >
  <crystal>
   <varray name="basis" >
    <v>      10.93252578       0.00000000       0.00000000 </v>
    <v>       0.00000000      10.93252578       0.00000000 </v>
    <v>       0.00000000       0.00000000      10.93252578 </v>
   </varray>
   <i name="volume">   1306.65679237 </i>
   <varray name="rec_basis" >
    <v>       0.09147017       0.00000000       0.00000000 </v>
    <v>       0.00000000       0.09147017       0.00000000 </v>
    <v>       0.00000000       0.00000000       0.09147017 </v>
   </varray>
  </crystal>
  <varray name="positions" >
   <v>       0.44024411       0.43750000       0.43750000 </v>
   <v>       0.93750000       0.43750000       0.43750000 </v>
   <v>       0.43750000       0.93750000       0.43750000 </v>
   <v>       0.93750000       0.93750000       0.43750000 </v>
   <v>       0.43750000       0.43750000       0.93750000 </v>
   <v>       0.93750000       0.43750000       0.93750000 </v>
   <v>       0.43750000       0.93750000       0.93750000 </v>
   <v>       0.93750000       0.93750000       0.93750000 </v>
   <v>       0.43750000       0.18750000       0.18750000 </v>
   <v>       0.93750000       0.18750000       0.18750000 </v>
   <v>       0.43750000       0.68750000       0.18750000 </v>
   <v>       0.93750000       0.68750000       0.18750000 </v>
   <v>       0.43750000       0.18750000       0.68750000 </v>
   <v>       0.93750000       0.18750000       0.68750000 </v>
   <v>       0.43750000       0.68750000       0.68750000 </v>
   <v>       0.93750000       0.68750000       0.68750000 </v>
   <v>       0.18750000       0.43750000       0.18750000 </v>
   <v>       0.68750000       0.43750000       0.18750000 </v>
   <v>       0.18750000       0.93750000       0.18750000 </v>
   <v>       0.68750000       0.93750000       0.18750000 </v>
   <v>       0.18750000       0.43750000       0.68750000 </v>
   <v>       0.68750000       0.43750000       0.68750000 </v>
   <v>       0.18750000       0.93750000       0.68750000 </v>
   <v>       0.68750000       0.93750000       0.68750000 </v>
   <v>       0.18750000       0.18750000       0.43750000 </v>
   <v>       0.68750000       0.18750000       0.43750000 </v>
   <v>       0.18750000       0.68750000       0.43750000 </v>
   <v>       0.68750000       0.68750000       0.43750000 </v>
   <v>       0.18750000       0.18750000       0.93750000 </v>
   <v>       0.68750000       0.18750000       0.93750000 </v>
   <v>       0.18750000       0.68750000       0.93750000 </v>
   <v>       0.68750000       0.68750000       0.93750000 </v>
   <v>       0.06250000       0.06250000       0.06250000 </v>
   <v>       0.56250000       0.06250000       0.06250000 </v>
   <v>       0.06250000       0.56250000       0.06250000 </v>
   <v>       0.56250000       0.56250000       0.06250000 </v>
   <v>       0.06250000       0.06250000       0.56250000 </v>
   <v>       0.56250000       0.06250000       0.56250000 </v>
   <v>       0.06524411       0.56250000       0.56250000 </v>
   <v>       0.56250000       0.56250000       0.56250000 </v>
   <v>       0.06250000       0.31250000       0.31250000 </v>
   <v>       0.56250000       0.31250000       0.31250000 </v>
   <v>       0.06250000       0.81250000       0.31250000 </v>
   <v>       0.56250000       0.81250000       0.31250000 </v>
   <v>       0.06250000       0.31250000       0.81250000 </v>
   <v>       0.56250000       0.31250000       0.81250000 </v>
   <v>       0.06250000       0.81250000       0.81250000 </v>
   <v>       0.56250000       0.81250000       0.81250000 </v>
   <v>       0.31250000       0.06250000       0.31250000 </v>
   <v>       0.81250000       0.06250000       0.31250000 </v>
   <v>       0.31250000       0.56250000       0.31250000 </v>
   <v>       0.81250000       0.56250000       0.31250000 </v>
   <v>       0.31250000       0.06250000       0.81250000 </v>
   <v>       0.81250000       0.06250000       0.81250000 </v>
   <v>       0.31250000       0.56250000       0.81250000 </v>
   <v>       0.81250000       0.56250000       0.81250000 </v>
   <v>       0.31250000       0.31250000       0.06250000 </v>
   <v>       0.81250000       0.31250000       0.06250000 </v>
   <v>       0.31250000       0.81250000       0.06250000 </v>
   <v>       0.81250000       0.81250000       0.06250000 </v>
   <v>       0.31250000       0.31250000       0.56250000 </v>
   <v>       0.81250000       0.31250000       0.56250000 </v>
   <v>       0.31250000       0.81250000       0.56250000 </v>
   <v>       0.81250000       0.81250000       0.56250000 </v>
  </varray>
 </structure>
 <calculation>
  <scstep>
   <time name="dav">    4.15    4.16</time>
   <time name="total">    4.42    4.43</time>
   <energy>
    <i name="alphaZ">    105.52440745 </i>
    <i name="ewald">  -7265.47586024 </i>
    <i name="hartreedc">   -361.70790744 </i>
    <i name="XCdc">   -597.75715961 </i>
    <i name="pawpsdc">   5639.92317535 </i>
    <i name="pawaedc">  -4513.95313856 </i>
    <i name="eentropy">     -0.00016140 </i>
    <i name="bandstr">    856.48740674 </i>
    <i name="atom">   6596.14994790 </i>
    <i name="e_fr_energy">    459.19071020 </i>
    <i name="e_wo_entrp">    459.19087160 </i>
    <i name="e_0_energy">    459.19079090 </i>
   </energy>
  </scstep>
  <scstep>
   <time name="dav">    4.74    4.75</time>
   <time name="total">    4.74    4.76</time>
   <energy>
    <i name="e_fr_energy">   -299.97233390 </i>
    <i name="e_wo_entrp">   -299.97233390 </i>
    <i name="e_0_energy">   -299.97233390 </i>
   </energy>
  </scstep>
  <scstep>
   <time name="dav">    4.82    4.82</time>
   <time name="total">    4.82    4.83</time>
   <energy>
    <i name="e_fr_energy">   -351.01845537 </i>
    <i name="e_wo_entrp">   -351.01845537 </i>
    <i name="e_0_energy">   -351.01845537 </i>
   </energy>
  </scstep>
  <scstep>
   <time name="dav">    4.82    4.83</time>
   <time name="total">    4.82    4.83</time>
   <energy>
    <i name="e_fr_energy">   -352.27436675 </i>
    <i name="e_wo_entrp">   -352.27436675 </i>
    <i name="e_0_energy">   -352.27436675 </i>
   </energy>
  </scstep>
  <scstep>
   <time name="dav">    4.76    4.76</time>
   <time name="total">    5.05    5.06</time>
   <energy>
    <i name="e_fr_energy">   -352.31310100 </i>
    <i name="e_wo_entrp">   -352.31310100 </i>
    <i name="e_0_energy">   -352.31310100 </i>
   </energy>
  </scstep>
  <scstep>
   <time name="dav">    4.64    4.64</time>
   <time name="total">    5.20    5.21</time>
   <energy>
    <i name="e_fr_energy">   -348.58473112 </i>
    <i name="e_wo_entrp">   -348.58473112 </i>
    <i name="e_0_energy">   -348.58473112 </i>
   </energy>
  </scstep>
  <scstep>
   <time name="dav">    4.56    4.57</time>
   <time name="total">    5.13    5.13</time>
   <energy>
    <i name="e_fr_energy">   -346.87187422 </i>
    <i name="e_wo_entrp">   -346.87187422 </i>
    <i name="e_0_energy">   -346.87187422 </i>
   </energy>
  </scstep>
  <scstep>
   <time name="dav">    4.71    4.72</time>
   <time name="total">    5.27    5.29</time>
   <energy>
    <i name="e_fr_energy">   -346.89816250 </i>
    <i name="e_wo_entrp">   -346.89816250 </i>
    <i name="e_0_energy">   -346.89816250 </i>
   </energy>
  </scstep>
  <scstep>
   <time name="dav">    4.82    4.83</time>
   <time name="total">    5.38    5.40</time>
   <energy>
    <i name="e_fr_energy">   -346.90485348 </i>
    <i name="e_wo_entrp">   -346.90485348 </i>
    <i name="e_0_energy">   -346.90485348 </i>
   </energy>
  </scstep>
  <scstep>
   <time name="dav">    4.49    4.50</time>
   <time name="total">    5.06    5.07</time>
   <energy>
    <i name="e_fr_energy">   -346.90691020 </i>
    <i name="e_wo_entrp">   -346.90691020 </i>
    <i name="e_0_energy">   -346.90691020 </i>
   </energy>
  </scstep>
  <scstep>
   <time name="dav">    4.72    4.73</time>
   <time name="total">    5.28    5.29</time>
   <energy>
    <i name="e_fr_energy">   -346.90688981 </i>
    <i name="e_wo_entrp">   -346.90688981 </i>
    <i name="e_0_energy">   -346.90688981 </i>
   </energy>
  </scstep>
  <scstep>
   <time name="dav">    4.63    4.66</time>
   <time name="total">    5.19    5.23</time>
   <energy>
    <i name="e_fr_energy">   -346.90690453 </i>
    <i name="e_wo_entrp">   -346.90690453 </i>
    <i name="e_0_energy">   -346.90690453 </i>
   </energy>
  </scstep>
  <scstep>
   <time name="dav">    4.75    4.75</time>
   <time name="total">    5.32    5.33</time>
   <energy>
    <i name="e_fr_energy">   -346.90690486 </i>
    <i name="e_wo_entrp">   -346.90690486 </i>
    <i name="e_0_energy">   -346.90690486 </i>
   </energy>
  </scstep>
  <scstep>
   <time name="dav">    4.72    4.72</time>
   <time name="total">    5.28    5.29</time>
   <energy>
    <i name="e_fr_energy">   -346.90690539 </i>
    <i name="e_wo_entrp">   -346.90690539 </i>
    <i name="e_0_energy">   -346.90690539 </i>
   </energy>
  </scstep>
  <scstep>
   <time name="dav">    4.13    4.13</time>
   <time name="total">    4.69    4.70</time>
   <energy>
    <i name="e_fr_energy">   -346.90690512 </i>
    <i name="e_wo_entrp">   -346.90690512 </i>
    <i name="e_0_energy">   -346.90690512 </i>
   </energy>
  </scstep>
  <scstep>
   <time name="dav">    3.22    3.22</time>
   <time name="total">    3.79    3.80</time>
   <energy>
    <i name="e_fr_energy">   -346.90690521 </i>
    <i name="e_wo_entrp">   -346.90690521 </i>
    <i name="e_0_energy">   -346.90690521 </i>
   </energy>
  </scstep>
  <scstep>
   <time name="dav">    3.19    3.20</time>
   <time name="total">    3.76    3.77</time>
   <energy>
    <i name="e_fr_energy">   -346.90690519 </i>
    <i name="e_wo_entrp">   -346.90690519 </i>
    <i name="e_0_energy">   -346.90690519 </i>
   </energy>
  </scstep>
  <scstep>
   <time name="dav">    3.22    3.22</time>
   <time name="total">    3.78    3.79</time>
   <energy>
    <i name="e_fr_energy">   -346.90690521 </i>
    <i name="e_wo_entrp">   -346.90690521 </i>
    <i name="e_0_energy">   -346.90690521 </i>
   </energy>
  </scstep>
  <scstep>
   <time name="dav">    3.19    3.20</time>
   <time name="total">    3.46    3.47</time>
   <energy>
    <i name="alphaZ">    105.52440745 </i>
    <i name="ewald">  -7265.47586024 </i>
    <i name="hartreedc">   -485.13875354 </i>
    <i name="XCdc">   -577.61229983 </i>
    <i name="pawpsdc">  27883.43788501 </i>
    <i name="pawaedc"> -26764.15581296 </i>
    <i name="eentropy">      0.00000000 </i>
    <i name="bandstr">    160.36358100 </i>
    <i name="atom">   6596.14994790 </i>
    <i name="e_fr_energy">   -346.90690521 </i>
    <i name="e_wo_entrp">   -346.90690521 </i>
    <i name="e_0_energy">   -346.90690521 </i>
   </energy>
  </scstep>
  <structure>
   <crystal>
    <varray name="basis" >
     <v>      10.93252578       0.00000000       0.00000000 </v>
     <v>       0.00000000      10.93252578       0.00000000 </v>
     <v>       0.00000000       0.00000000      10.93252578 </v>
    </varray>
    <i name="volume">   1306.65679237 </i>
    <varray name="rec_basis" >
     <v>       0.09147017       0.00000000       0.00000000 </v>
     <v>       0.00000000       0.09147017       0.00000000 </v>
     <v>       0.00000000       0.00000000       0.09147017 </v>
    </varray>
   </crystal>
   <varray name="positions" >
    <v>       0.44024411       0.43750000       0.43750000 </v>
    <v>       0.93750000       0.43750000       0.43750000 </v>
    <v>       0.43750000       0.93750000       0.43750000 </v>
    <v>       0.93750000       0.93750000       0.43750000 </v>
    <v>       0.43750000       0.43750000       0.93750000 </v>
    <v>       0.93750000       0.43750000       0.93750000 </v>
    <v>       0.43750000       0.93750000       0.93750000 </v>
    <v>       0.93750000       0.93750000       0.93750000 </v>
    <v>       0.43750000       0.18750000       0.18750000 </v>
    <v>       0.93750000       0.18750000       0.18750000 </v>
    <v>       0.43750000       0.68750000       0.18750000 </v>
    <v>       0.93750000       0.68750000       0.18750000 </v>
    <v>       0.43750000       0.18750000       0.68750000 </v>
    <v>       0.93750000       0.18750000       0.68750000 </v>
    <v>       0.43750000       0.68750000       0.68750000 </v>
    <v>       0.93750000       0.68750000       0.68750000 </v>
    <v>       0.18750000       0.43750000       0.18750000 </v>
    <v>       0.68750000       0.43750000       0.18750000 </v>
    <v>       0.18750000       0.93750000       0.18750000 </v>
    <v>       0.68750000       0.93750000       0.18750000 </v>
    <v>       0.18750000       0.43750000       0.68750000 </v>
    <v>       0.68750000       0.43750000       0.68750000 </v>
    <v>       0.18750000       0.93750000       0.68750000 </v>
    <v>       0.68750000       0.93750000       0.68750000 </v>
    <v>       0.18750000       0.18750000       0.43750000 </v>
    <v>       0.68750000       0.18750000       0.43750000 </v>
    <v>       0.18750000       0.68750000       0.43750000 </v>
    <v>       0.68750000       0.68750000       0.43750000 </v>
    <v>       0.18750000       0.18750000       0.93750000 </v>
    <v>       0.68750000       0.18750000       0.93750000 </v>
    <v>       0.18750000       0.68750000       0.93750000 </v>
    <v>       0.68750000       0.68750000       0.93750000 </v>
    <v>       0.06250000       0.06250000       0.06250000 </v>
    <v>       0.56250000       0.06250000       0.06250000 </v>
    <v>       0.06250000       0.56250000       0.06250000 </v>
    <v>       0.56250000       0.56250000       0.06250000 </v>
    <v>       0.06250000       0.06250000       0.56250000 </v>
    <v>       0.56250000       0.06250000       0.56250000 </v>
    <v>       0.06524411       0.56250000       0.56250000 </v>
    <v>       0.56250000       0.56250000       0.56250000 </v>
    <v>       0.06250000       0.31250000       0.31250000 </v>
    <v>       0.56250000       0.31250000       0.31250000 </v>
    <v>       0.06250000       0.81250000       0.31250000 </v>
    <v>       0.56250000       0.81250000       0.31250000 </v>
    <v>       0.06250000       0.31250000       0.81250000 </v>
    <v>       0.56250000       0.31250000       0.81250000 </v>
    <v>       0.06250000       0.81250000       0.81250000 </v>
    <v>       0.56250000       0.81250000       0.81250000 </v>
    <v>       0.31250000       0.06250000       0.31250000 </v>
    <v>       0.81250000       0.06250000       0.31250000 </v>
    <v>       0.31250000       0.56250000       0.31250000 </v>
    <v>       0.81250000       0.56250000       0.31250000 </v>
    <v>       0.31250000       0.06250000       0.81250000 </v>
    <v>       0.81250000       0.06250000       0.81250000 </v>
    <v>       0.31250000       0.56250000       0.81250000 </v>
    <v>       0.81250000       0.56250000       0.81250000 </v>
    <v>       0.31250000       0.31250000       0.06250000 </v>
    <v>       0.81250000       0.31250000       0.06250000 </v>
    <v>       0.31250000       0.81250000       0.06250000 </v>
    <v>       0.81250000       0.81250000       0.06250000 </v>
    <v>       0.31250000       0.31250000       0.56250000 </v>
    <v>       0.81250000       0.31250000       0.56250000 </v>
    <v>       0.31250000       0.81250000       0.56250000 </v>
    <v>       0.81250000       0.81250000       0.56250000 </v>
   </varray>
  </structure>
  <varray name="forces" >
   <v>      -0.38741410       0.00090296       0.00090296 </v>
   <v>       0.09362452       0.06095835       0.06095835 </v>
   <v>       0.00198010       0.00063881       0.00070501 </v>
   <v>      -0.00160791       0.00088892       0.00124402 </v>
   <v>       0.00198010       0.00070501       0.00063881 </v>
   <v>      -0.00160791       0.00124402       0.00088892 </v>
   <v>      -0.01208517       0.00074619       0.00074619 </v>
   <v>       0.00671575       0.00067645       0.00067645 </v>
   <v>      -0.01341259       0.00202646       0.00202646 </v>
   <v>       0.00611084      -0.00044912      -0.00044912 </v>
   <v>      -0.01211630       0.00195963      -0.00330864 </v>
   <v>      -0.00143352      -0.00101390      -0.00112112 </v>
   <v>      -0.01211630      -0.00330864       0.00195963 </v>
   <v>      -0.00143352      -0.00112112      -0.00101390 </v>
   <v>      -0.01315463      -0.00367405      -0.00367405 </v>
   <v>       0.09305857      -0.06118707      -0.06118707 </v>
   <v>       0.00417233      -0.00388535       0.00648794 </v>
   <v>       0.00642201      -0.00342495      -0.00508758 </v>
   <v>       0.00722685      -0.00091714      -0.00117711 </v>
   <v>       0.00048561      -0.00098386       0.00260195 </v>
   <v>       0.10144236      -0.06343470       0.06055982 </v>
   <v>       0.00552652       0.00185880       0.00660014 </v>
   <v>      -0.00045968      -0.00069469       0.00307431 </v>
   <v>       0.00163904      -0.00037187      -0.00119423 </v>
   <v>       0.00417233       0.00648794      -0.00388535 </v>
   <v>       0.00642201      -0.00508758      -0.00342495 </v>
   <v>       0.10144236       0.06055982      -0.06343470 </v>
   <v>       0.00552652       0.00660014       0.00185880 </v>
   <v>       0.00722685      -0.00117711      -0.00091714 </v>
   <v>       0.00048561       0.00260195      -0.00098386 </v>
   <v>      -0.00045968       0.00307431      -0.00069469 </v>
   <v>       0.00163904      -0.00119423      -0.00037187 </v>
   <v>      -0.01208678       0.00075453       0.00075453 </v>
   <v>       0.00678696       0.00068498       0.00068498 </v>
   <v>       0.00193516       0.00065570       0.00060126 </v>
   <v>      -0.00165282       0.00121387       0.00092504 </v>
   <v>       0.00193516       0.00060126       0.00065570 </v>
   <v>      -0.00165282       0.00092504       0.00121387 </v>
   <v>      -0.38741519       0.00090986       0.00090986 </v>
   <v>       0.09635207       0.06611168       0.06611168 </v>
   <v>      -0.01305568      -0.00357701      -0.00357701 </v>
   <v>       0.09579295      -0.06634291      -0.06634291 </v>
   <v>      -0.01226081      -0.00336838       0.00211742 </v>
   <v>      -0.00150090      -0.00115288      -0.00098426 </v>
   <v>      -0.01226081       0.00211742      -0.00336838 </v>
   <v>      -0.00150090      -0.00098426      -0.00115288 </v>
   <v>      -0.01331556       0.00191009       0.00191009 </v>
   <v>       0.00621194      -0.00045228      -0.00045228 </v>
   <v>      -0.00041040      -0.00065937       0.00309264 </v>
   <v>       0.00167966      -0.00040815      -0.00115406 </v>
   <v>       0.09888456      -0.05819481       0.05526070 </v>
   <v>       0.00537073       0.00176799       0.00646430 </v>
   <v>       0.00716047      -0.00090404      -0.00117023 </v>
   <v>       0.00048219      -0.00097663       0.00260749 </v>
   <v>       0.00436961      -0.00401392       0.00657622 </v>
   <v>       0.00630819      -0.00337641      -0.00492281 </v>
   <v>      -0.00041040       0.00309264      -0.00065937 </v>
   <v>       0.00167966      -0.00115406      -0.00040815 </v>
   <v>       0.00716047      -0.00117023      -0.00090404 </v>
   <v>       0.00048219       0.00260749      -0.00097663 </v>
   <v>       0.09888456       0.05526070      -0.05819481 </v>
   <v>       0.00537073       0.00646430       0.00176799 </v>
   <v>       0.00436961       0.00657622      -0.00401392 </v>
   <v>       0.00630819      -0.00492281      -0.00337641 </v>
  </varray>
  <varray name="stress" >
   <v>      -0.01767179       0.00002318       0.00002318 </v>
   <v>       0.00002316       0.02085700       0.00000098 </v>
   <v>       0.00002316       0.00000098       0.02085700 </v>
  </varray>
  <energy>
   <i name="e_fr_energy">   -346.90690521 </i>
   <i name="e_wo_entrp">   -346.90690521 </i>
   <i name="e_0_energy">      0.00000000 </i>
  </energy>
  <time name="totalsc">  100.30  100.60</time>
  <eigenvalues>
   <array>
    <dimension dim="1">band</dimension>
    <dimension dim="2">kpoint</dimension>
    <dimension dim="3">spin</dimension>
    <field>eigene</field>
    <field>occ</field>
    <set>
     <set comment="spin 1">
      <set comment="kpoint 1">
       <r>   -5.9931    1.0000 </r>
       <r>   -5.4649    1.0000 </r>
       <r>   -5.4647    1.0000 </r>
       <r>   -5.4646    1.0000 </r>
       <r>   -4.9658    1.0000 </r>
       <r>   -4.9654    1.0000 </r>
       <r>   -4.9653    1.0000 </r>
       <r>   -4.5322    1.0000 </r>
       <r>   -4.4329    1.0000 </r>
       <r>   -4.4324    1.0000 </r>
       <r>   -4.4322    1.0000 </r>
       <r>   -4.0249    1.0000 </r>
       <r>   -4.0183    1.0000 </r>
       <r>   -4.0165    1.0000 </r>
       <r>   -4.0163    1.0000 </r>
       <r>   -4.0144    1.0000 </r>
       <r>   -4.0083    1.0000 </r>
       <r>   -3.8265    1.0000 </r>
       <r>   -3.8244    1.0000 </r>
       <r>   -3.8219    1.0000 </r>
       <r>   -3.3311    1.0000 </r>
       <r>   -3.3283    1.0000 </r>
       <r>   -3.3258    1.0000 </r>
       <r>   -2.9639    1.0000 </r>
       <r>   -2.9591    1.0000 </r>
       <r>   -2.9545    1.0000 </r>
       <r>   -2.7974    1.0000 </r>
       <r>   -2.7933    1.0000 </r>
       <r>   -2.7909    1.0000 </r>
       <r>   -2.7908    1.0000 </r>
       <r>   -2.7885    1.0000 </r>
       <r>   -2.7839    1.0000 </r>
       <r>   -1.2546    1.0000 </r>
       <r>   -1.2519    1.0000 </r>
       <r>   -1.2494    1.0000 </r>
       <r>   -1.2486    1.0000 </r>
       <r>   -1.2456    1.0000 </r>
       <r>   -1.2430    1.0000 </r>
       <r>   -1.1567    1.0000 </r>
       <r>   -1.1511    1.0000 </r>
       <r>   -1.1457    1.0000 </r>
       <r>   -1.0353    1.0000 </r>
       <r>   -1.0328    1.0000 </r>
       <r>   -1.0298    1.0000 </r>
       <r>   -0.9531    1.0000 </r>
       <r>   -0.9469    1.0000 </r>
       <r>   -0.9400    1.0000 </r>
       <r>   -0.2447    1.0000 </r>
       <r>   -0.1682    1.0000 </r>
       <r>   -0.1641    1.0000 </r>
       <r>   -0.1602    1.0000 </r>
       <r>   -0.1600    1.0000 </r>
       <r>   -0.1563    1.0000 </r>
       <r>   -0.1518    1.0000 </r>
       <r>    0.7116    1.0000 </r>
       <r>    0.7142    1.0000 </r>
       <r>    0.7170    1.0000 </r>
       <r>    1.0455    1.0000 </r>
       <r>    1.0470    1.0000 </r>
       <r>    1.0488    1.0000 </r>
       <r>    1.6543    1.0000 </r>
       <r>    1.6556    1.0000 </r>
       <r>    1.6568    1.0000 </r>
       <r>    1.6570    1.0000 </r>
       <r>    1.6583    1.0000 </r>
       <r>    1.6591    1.0000 </r>
       <r>    1.7133    1.0000 </r>
       <r>    1.7160    1.0000 </r>
       <r>    1.7196    1.0000 </r>
       <r>    2.2652    1.0000 </r>
       <r>    2.2678    1.0000 </r>
       <r>    2.2700    1.0000 </r>
       <r>    2.3660    1.0000 </r>
       <r>    2.3680    1.0000 </r>
       <r>    2.3700    1.0000 </r>
       <r>    2.3709    1.0000 </r>
       <r>    2.3739    1.0000 </r>
       <r>    2.3753    1.0000 </r>
       <r>    2.4238    1.0000 </r>
       <r>    2.4257    1.0000 </r>
       <r>    2.4266    1.0000 </r>
       <r>    2.7322    1.0000 </r>
       <r>    2.7341    1.0000 </r>
       <r>    2.7349    1.0000 </r>
       <r>    2.7350    1.0000 </r>
       <r>    2.7358    1.0000 </r>
       <r>    2.7375    1.0000 </r>
       <r>    2.9981    1.0000 </r>
       <r>    2.9994    1.0000 </r>
       <r>    2.9995    1.0000 </r>
       <r>    3.0118    1.0000 </r>
       <r>    3.0146    1.0000 </r>
       <r>    3.0149    1.0000 </r>
       <r>    3.3612    1.0000 </r>
       <r>    3.3622    1.0000 </r>
       <r>    3.3625    1.0000 </r>
       <r>    3.3816    1.0000 </r>
       <r>    3.3842    1.0000 </r>
       <r>    3.3872    1.0000 </r>
       <r>    3.4643    1.0000 </r>
       <r>    3.4669    1.0000 </r>
       <r>    3.4688    1.0000 </r>
       <r>    3.7349    1.0000 </r>
       <r>    3.7401    1.0000 </r>
       <r>    3.7405    1.0000 </r>
       <r>    3.7413    1.0000 </r>
       <r>    3.7424    1.0000 </r>
       <r>    3.7480    1.0000 </r>
       <r>    3.7779    1.0000 </r>
       <r>    3.7816    1.0000 </r>
       <r>    3.7832    1.0000 </r>
       <r>    4.0403    1.0000 </r>
       <r>    4.0976    1.0000 </r>
       <r>    4.0979    1.0000 </r>
       <r>    4.0985    1.0000 </r>
       <r>    4.3381    1.0000 </r>
       <r>    4.3411    1.0000 </r>
       <r>    4.3440    1.0000 </r>
       <r>    4.4011    1.0000 </r>
       <r>    4.4056    1.0000 </r>
       <r>    4.4107    1.0000 </r>
       <r>    4.5630    1.0000 </r>
       <r>    4.5630    1.0000 </r>
       <r>    4.8659    1.0000 </r>
       <r>    4.8702    1.0000 </r>
       <r>    4.8741    1.0000 </r>
       <r>    5.3497    1.0000 </r>
       <r>    5.3498    1.0000 </r>
       <r>    6.5629    0.0000 </r>
       <r>    6.5634    0.0000 </r>
       <r>    6.5638    0.0000 </r>
       <r>    7.0013    0.0000 </r>
       <r>    7.0044    0.0000 </r>
       <r>    7.0075    0.0000 </r>
       <r>    7.2338    0.0000 </r>
       <r>    7.4886    0.0000 </r>
       <r>    7.4908    0.0000 </r>
       <r>    7.4928    0.0000 </r>
       <r>    7.6164    0.0000 </r>
       <r>    7.6197    0.0000 </r>
       <r>    7.6224    0.0000 </r>
       <r>    7.7795    0.0000 </r>
       <r>    7.7799    0.0000 </r>
       <r>    7.7803    0.0000 </r>
       <r>    7.8010    0.0000 </r>
       <r>    7.8012    0.0000 </r>
       <r>    7.8013    0.0000 </r>
       <r>    8.0251    0.0000 </r>
       <r>    8.0275    0.0000 </r>
       <r>    8.0305    0.0000 </r>
       <r>    8.0307    0.0000 </r>
       <r>    8.0338    0.0000 </r>
       <r>    8.0352    0.0000 </r>
       <r>    8.0815    0.0000 </r>
       <r>    8.2927    0.0000 </r>
       <r>    8.2950    0.0000 </r>
       <r>    8.2971    0.0000 </r>
       <r>    8.4947    0.0000 </r>
       <r>    8.5005    0.0000 </r>
       <r>    8.5017    0.0000 </r>
       <r>    8.5034    0.0000 </r>
       <r>    8.5095    0.0000 </r>
       <r>    8.5190    0.0000 </r>
       <r>    8.5483    0.0000 </r>
      </set>
      <set comment="kpoint 2">
       <r>   -5.9931    1.0000 </r>
       <r>   -5.4679    1.0000 </r>
       <r>   -5.4646    1.0000 </r>
       <r>   -5.4617    1.0000 </r>
       <r>   -4.9683    1.0000 </r>
       <r>   -4.9654    1.0000 </r>
       <r>   -4.9629    1.0000 </r>
       <r>   -4.5325    1.0000 </r>
       <r>   -4.4353    1.0000 </r>
       <r>   -4.4324    1.0000 </r>
       <r>   -4.4294    1.0000 </r>
       <r>   -4.0233    1.0000 </r>
       <r>   -4.0170    1.0000 </r>
       <r>   -4.0166    1.0000 </r>
       <r>   -4.0164    1.0000 </r>
       <r>   -4.0157    1.0000 </r>
       <r>   -4.0097    1.0000 </r>
       <r>   -3.8245    1.0000 </r>
       <r>   -3.8244    1.0000 </r>
       <r>   -3.8243    1.0000 </r>
       <r>   -3.3296    1.0000 </r>
       <r>   -3.3283    1.0000 </r>
       <r>   -3.3271    1.0000 </r>
       <r>   -2.9594    1.0000 </r>
       <r>   -2.9591    1.0000 </r>
       <r>   -2.9589    1.0000 </r>
       <r>   -2.7979    1.0000 </r>
       <r>   -2.7915    1.0000 </r>
       <r>   -2.7910    1.0000 </r>
       <r>   -2.7909    1.0000 </r>
       <r>   -2.7903    1.0000 </r>
       <r>   -2.7835    1.0000 </r>
       <r>   -1.2559    1.0000 </r>
       <r>   -1.2493    1.0000 </r>
       <r>   -1.2488    1.0000 </r>
       <r>   -1.2487    1.0000 </r>
       <r>   -1.2481    1.0000 </r>
       <r>   -1.2423    1.0000 </r>
       <r>   -1.1518    1.0000 </r>
       <r>   -1.1512    1.0000 </r>
       <r>   -1.1508    1.0000 </r>
       <r>   -1.0329    1.0000 </r>
       <r>   -1.0326    1.0000 </r>
       <r>   -1.0322    1.0000 </r>
       <r>   -0.9519    1.0000 </r>
       <r>   -0.9468    1.0000 </r>
       <r>   -0.9414    1.0000 </r>
       <r>   -0.2446    1.0000 </r>
       <r>   -0.1649    1.0000 </r>
       <r>   -0.1610    1.0000 </r>
       <r>   -0.1602    1.0000 </r>
       <r>   -0.1601    1.0000 </r>
       <r>   -0.1594    1.0000 </r>
       <r>   -0.1550    1.0000 </r>
       <r>    0.7133    1.0000 </r>
       <r>    0.7142    1.0000 </r>
       <r>    0.7154    1.0000 </r>
       <r>    1.0470    1.0000 </r>
       <r>    1.0471    1.0000 </r>
       <r>    1.0472    1.0000 </r>
       <r>    1.6534    1.0000 </r>
       <r>    1.6547    1.0000 </r>
       <r>    1.6567    1.0000 </r>
       <r>    1.6571    1.0000 </r>
       <r>    1.6593    1.0000 </r>
       <r>    1.6604    1.0000 </r>
       <r>    1.7142    1.0000 </r>
       <r>    1.7158    1.0000 </r>
       <r>    1.7183    1.0000 </r>
       <r>    2.2662    1.0000 </r>
       <r>    2.2678    1.0000 </r>
       <r>    2.2692    1.0000 </r>
       <r>    2.3665    1.0000 </r>
       <r>    2.3669    1.0000 </r>
       <r>    2.3709    1.0000 </r>
       <r>    2.3711    1.0000 </r>
       <r>    2.3747    1.0000 </r>
       <r>    2.3754    1.0000 </r>
       <r>    2.4221    1.0000 </r>
       <r>    2.4247    1.0000 </r>
       <r>    2.4278    1.0000 </r>
       <r>    2.7305    1.0000 </r>
       <r>    2.7344    1.0000 </r>
       <r>    2.7349    1.0000 </r>
       <r>    2.7349    1.0000 </r>
       <r>    2.7355    1.0000 </r>
       <r>    2.7393    1.0000 </r>
       <r>    2.9973    1.0000 </r>
       <r>    2.9991    1.0000 </r>
       <r>    3.0008    1.0000 </r>
       <r>    3.0132    1.0000 </r>
       <r>    3.0138    1.0000 </r>
       <r>    3.0142    1.0000 </r>
       <r>    3.3596    1.0000 </r>
       <r>    3.3622    1.0000 </r>
       <r>    3.3639    1.0000 </r>
       <r>    3.3824    1.0000 </r>
       <r>    3.3842    1.0000 </r>
       <r>    3.3865    1.0000 </r>
       <r>    3.4655    1.0000 </r>
       <r>    3.4670    1.0000 </r>
       <r>    3.4675    1.0000 </r>
       <r>    3.7355    1.0000 </r>
       <r>    3.7407    1.0000 </r>
       <r>    3.7413    1.0000 </r>
       <r>    3.7414    1.0000 </r>
       <r>    3.7419    1.0000 </r>
       <r>    3.7469    1.0000 </r>
       <r>    3.7791    1.0000 </r>
       <r>    3.7815    1.0000 </r>
       <r>    3.7817    1.0000 </r>
       <r>    4.0402    1.0000 </r>
       <r>    4.0951    1.0000 </r>
       <r>    4.0985    1.0000 </r>
       <r>    4.1005    1.0000 </r>
       <r>    4.3397    1.0000 </r>
       <r>    4.3411    1.0000 </r>
       <r>    4.3426    1.0000 </r>
       <r>    4.4030    1.0000 </r>
       <r>    4.4056    1.0000 </r>
       <r>    4.4088    1.0000 </r>
       <r>    4.5628    1.0000 </r>
       <r>    4.5630    1.0000 </r>
       <r>    4.8677    1.0000 </r>
       <r>    4.8702    1.0000 </r>
       <r>    4.8723    1.0000 </r>
       <r>    5.3497    1.0000 </r>
       <r>    5.3498    1.0000 </r>
       <r>    6.5628    0.0000 </r>
       <r>    6.5635    0.0000 </r>
       <r>    6.5639    0.0000 </r>
       <r>    7.0008    0.0000 </r>
       <r>    7.0044    0.0000 </r>
       <r>    7.0080    0.0000 </r>
       <r>    7.2337    0.0000 </r>
       <r>    7.4878    0.0000 </r>
       <r>    7.4909    0.0000 </r>
       <r>    7.4935    0.0000 </r>
       <r>    7.6193    0.0000 </r>
       <r>    7.6195    0.0000 </r>
       <r>    7.6196    0.0000 </r>
       <r>    7.7767    0.0000 </r>
       <r>    7.7797    0.0000 </r>
       <r>    7.7821    0.0000 </r>
       <r>    7.7991    0.0000 </r>
       <r>    7.8013    0.0000 </r>
       <r>    7.8044    0.0000 </r>
       <r>    8.0272    0.0000 </r>
       <r>    8.0274    0.0000 </r>
       <r>    8.0305    0.0000 </r>
       <r>    8.0307    0.0000 </r>
       <r>    8.0330    0.0000 </r>
       <r>    8.0340    0.0000 </r>
       <r>    8.0815    0.0000 </r>
       <r>    8.2922    0.0000 </r>
       <r>    8.2950    0.0000 </r>
       <r>    8.2977    0.0000 </r>
       <r>    8.4984    0.0000 </r>
       <r>    8.5000    0.0000 </r>
       <r>    8.5021    0.0000 </r>
       <r>    8.5038    0.0000 </r>
       <r>    8.5060    0.0000 </r>
       <r>    8.5202    0.0000 </r>
       <r>    8.5403    0.0000 </r>
      </set>
      <set comment="kpoint 3">
       <r>   -5.9931    1.0000 </r>
       <r>   -5.4672    1.0000 </r>
       <r>   -5.4648    1.0000 </r>
       <r>   -5.4623    1.0000 </r>
       <r>   -4.9680    1.0000 </r>
       <r>   -4.9656    1.0000 </r>
       <r>   -4.9630    1.0000 </r>
       <r>   -4.5322    1.0000 </r>
       <r>   -4.4351    1.0000 </r>
       <r>   -4.4324    1.0000 </r>
       <r>   -4.4299    1.0000 </r>
       <r>   -4.0240    1.0000 </r>
       <r>   -4.0190    1.0000 </r>
       <r>   -4.0179    1.0000 </r>
       <r>   -4.0149    1.0000 </r>
       <r>   -4.0138    1.0000 </r>
       <r>   -4.0091    1.0000 </r>
       <r>   -3.8293    1.0000 </r>
       <r>   -3.8244    1.0000 </r>
       <r>   -3.8193    1.0000 </r>
       <r>   -3.3325    1.0000 </r>
       <r>   -3.3283    1.0000 </r>
       <r>   -3.3243    1.0000 </r>
       <r>   -2.9640    1.0000 </r>
       <r>   -2.9590    1.0000 </r>
       <r>   -2.9544    1.0000 </r>
       <r>   -2.7979    1.0000 </r>
       <r>   -2.7934    1.0000 </r>
       <r>   -2.7922    1.0000 </r>
       <r>   -2.7894    1.0000 </r>
       <r>   -2.7883    1.0000 </r>
       <r>   -2.7836    1.0000 </r>
       <r>   -1.2553    1.0000 </r>
       <r>   -1.2523    1.0000 </r>
       <r>   -1.2514    1.0000 </r>
       <r>   -1.2462    1.0000 </r>
       <r>   -1.2454    1.0000 </r>
       <r>   -1.2427    1.0000 </r>
       <r>   -1.1555    1.0000 </r>
       <r>   -1.1513    1.0000 </r>
       <r>   -1.1468    1.0000 </r>
       <r>   -1.0359    1.0000 </r>
       <r>   -1.0326    1.0000 </r>
       <r>   -1.0291    1.0000 </r>
       <r>   -0.9533    1.0000 </r>
       <r>   -0.9468    1.0000 </r>
       <r>   -0.9400    1.0000 </r>
       <r>   -0.2446    1.0000 </r>
       <r>   -0.1674    1.0000 </r>
       <r>   -0.1651    1.0000 </r>
       <r>   -0.1624    1.0000 </r>
       <r>   -0.1579    1.0000 </r>
       <r>   -0.1551    1.0000 </r>
       <r>   -0.1528    1.0000 </r>
       <r>    0.7090    1.0000 </r>
       <r>    0.7143    1.0000 </r>
       <r>    0.7195    1.0000 </r>
       <r>    1.0449    1.0000 </r>
       <r>    1.0471    1.0000 </r>
       <r>    1.0493    1.0000 </r>
       <r>    1.6532    1.0000 </r>
       <r>    1.6555    1.0000 </r>
       <r>    1.6569    1.0000 </r>
       <r>    1.6572    1.0000 </r>
       <r>    1.6582    1.0000 </r>
       <r>    1.6603    1.0000 </r>
       <r>    1.7135    1.0000 </r>
       <r>    1.7160    1.0000 </r>
       <r>    1.7191    1.0000 </r>
       <r>    2.2655    1.0000 </r>
       <r>    2.2677    1.0000 </r>
       <r>    2.2700    1.0000 </r>
       <r>    2.3664    1.0000 </r>
       <r>    2.3677    1.0000 </r>
       <r>    2.3703    1.0000 </r>
       <r>    2.3710    1.0000 </r>
       <r>    2.3736    1.0000 </r>
       <r>    2.3752    1.0000 </r>
       <r>    2.4234    1.0000 </r>
       <r>    2.4250    1.0000 </r>
       <r>    2.4275    1.0000 </r>
       <r>    2.7298    1.0000 </r>
       <r>    2.7326    1.0000 </r>
       <r>    2.7337    1.0000 </r>
       <r>    2.7362    1.0000 </r>
       <r>    2.7374    1.0000 </r>
       <r>    2.7400    1.0000 </r>
       <r>    2.9975    1.0000 </r>
       <r>    2.9991    1.0000 </r>
       <r>    3.0013    1.0000 </r>
       <r>    3.0114    1.0000 </r>
       <r>    3.0134    1.0000 </r>
       <r>    3.0154    1.0000 </r>
       <r>    3.3587    1.0000 </r>
       <r>    3.3618    1.0000 </r>
       <r>    3.3643    1.0000 </r>
       <r>    3.3799    1.0000 </r>
       <r>    3.3848    1.0000 </r>
       <r>    3.3894    1.0000 </r>
       <r>    3.4639    1.0000 </r>
       <r>    3.4667    1.0000 </r>
       <r>    3.4694    1.0000 </r>
       <r>    3.7335    1.0000 </r>
       <r>    3.7385    1.0000 </r>
       <r>    3.7407    1.0000 </r>
       <r>    3.7418    1.0000 </r>
       <r>    3.7441    1.0000 </r>
       <r>    3.7489    1.0000 </r>
       <r>    3.7775    1.0000 </r>
       <r>    3.7809    1.0000 </r>
       <r>    3.7839    1.0000 </r>
       <r>    4.0405    1.0000 </r>
       <r>    4.0956    1.0000 </r>
       <r>    4.0980    1.0000 </r>
       <r>    4.1004    1.0000 </r>
       <r>    4.3378    1.0000 </r>
       <r>    4.3410    1.0000 </r>
       <r>    4.3443    1.0000 </r>
       <r>    4.4003    1.0000 </r>
       <r>    4.4056    1.0000 </r>
       <r>    4.4117    1.0000 </r>
       <r>    4.5626    1.0000 </r>
       <r>    4.5630    1.0000 </r>
       <r>    4.8658    1.0000 </r>
       <r>    4.8701    1.0000 </r>
       <r>    4.8744    1.0000 </r>
       <r>    5.3496    1.0000 </r>
       <r>    5.3498    1.0000 </r>
       <r>    6.5596    0.0000 </r>
       <r>    6.5634    0.0000 </r>
       <r>    6.5671    0.0000 </r>
       <r>    7.0005    0.0000 </r>
       <r>    7.0045    0.0000 </r>
       <r>    7.0084    0.0000 </r>
       <r>    7.2337    0.0000 </r>
       <r>    7.4876    0.0000 </r>
       <r>    7.4908    0.0000 </r>
       <r>    7.4936    0.0000 </r>
       <r>    7.6152    0.0000 </r>
       <r>    7.6195    0.0000 </r>
       <r>    7.6241    0.0000 </r>
       <r>    7.7775    0.0000 </r>
       <r>    7.7800    0.0000 </r>
       <r>    7.7822    0.0000 </r>
       <r>    7.7979    0.0000 </r>
       <r>    7.8013    0.0000 </r>
       <r>    7.8042    0.0000 </r>
       <r>    8.0247    0.0000 </r>
       <r>    8.0266    0.0000 </r>
       <r>    8.0292    0.0000 </r>
       <r>    8.0319    0.0000 </r>
       <r>    8.0342    0.0000 </r>
       <r>    8.0362    0.0000 </r>
       <r>    8.0814    0.0000 </r>
       <r>    8.2927    0.0000 </r>
       <r>    8.2951    0.0000 </r>
       <r>    8.2971    0.0000 </r>
       <r>    8.4952    0.0000 </r>
       <r>    8.4976    0.0000 </r>
       <r>    8.5026    0.0000 </r>
       <r>    8.5042    0.0000 </r>
       <r>    8.5075    0.0000 </r>
       <r>    8.5193    0.0000 </r>
       <r>    8.5401    0.0000 </r>
      </set>
     </set>
    </set>
   </array>
  </eigenvalues>
  <separator name="orbital magnetization" >
   <v name="MAGDIPOLOUT">      0.00000000      0.00000000      0.00000000</v>
  </separator>
  <dos>
   <i name="efermi">      5.59974992 </i>
   <total>
    <array>
     <dimension dim="1">gridpoints</dimension>
     <dimension dim="2">spin</dimension>
     <field>energy</field>
     <field>total</field>
     <field>integrated</field>
     <set>
      <set comment="spin 1">
       <r>    -6.7202     0.0000     0.0000 </r>
       <r>    -6.6669     0.0000     0.0000 </r>
       <r>    -6.6136     0.0000     0.0000 </r>
       <r>    -6.5603     0.0000     0.0000 </r>
       <r>    -6.5069     0.0000     0.0000 </r>
       <r>    -6.4536     0.0000     0.0000 </r>
       <r>    -6.4003     0.0000     0.0000 </r>
       <r>    -6.3470     0.0000     0.0000 </r>
       <r>    -6.2937     0.0000     0.0000 </r>
       <r>    -6.2404     0.0000     0.0000 </r>
       <r>    -6.1870     0.0000     0.0000 </r>
       <r>    -6.1337     0.0013     0.0001 </r>
       <r>    -6.0804     0.2537     0.0136 </r>
       <r>    -6.0271     6.0694     0.3372 </r>
       <r>    -5.9738    20.2436     1.4166 </r>
       <r>    -5.9204    10.1969     1.9603 </r>
       <r>    -5.8671     0.7384     1.9996 </r>
       <r>    -5.8138     0.0068     2.0000 </r>
       <r>    -5.7605     0.0000     2.0000 </r>
       <r>    -5.7072     0.0000     2.0000 </r>
       <r>    -5.6538     0.0000     2.0000 </r>
       <r>    -5.6005     0.0071     2.0004 </r>
       <r>    -5.5472     1.1112     2.0596 </r>
       <r>    -5.4939    21.9871     3.2320 </r>
       <r>    -5.4406    61.6029     6.5165 </r>
       <r>    -5.3873    26.2140     7.9142 </r>
       <r>    -5.3339     1.5961     7.9993 </r>
       <r>    -5.2806     0.0124     8.0000 </r>
       <r>    -5.2273     0.0000     8.0000 </r>
       <r>    -5.1740     0.0000     8.0000 </r>
       <r>    -5.1207     0.0007     8.0000 </r>
       <r>    -5.0673     0.2260     8.0121 </r>
       <r>    -5.0140     9.3797     8.5122 </r>
       <r>    -4.9607    52.7540    11.3250 </r>
       <r>    -4.9074    44.5133    13.6984 </r>
       <r>    -4.8541     5.5647    13.9951 </r>
       <r>    -4.8007     0.0922    14.0000 </r>
       <r>    -4.7474     0.0002    14.0000 </r>
       <r>    -4.6941     0.0001    14.0000 </r>
       <r>    -4.6408     0.0402    14.0021 </r>
       <r>    -4.5875     2.1826    14.1185 </r>
       <r>    -4.5342    15.9672    14.9699 </r>
       <r>    -4.4808    26.2514    16.3696 </r>
       <r>    -4.4275    55.5079    19.3292 </r>
       <r>    -4.3742    44.4678    21.7001 </r>
       <r>    -4.3209     5.5323    21.9951 </r>
       <r>    -4.2676     0.0914    22.0000 </r>
       <r>    -4.2142     0.0002    22.0000 </r>
       <r>    -4.1609     0.0057    22.0003 </r>
       <r>    -4.1076     1.1835    22.0634 </r>
       <r>    -4.0543    31.2945    23.7320 </r>
       <r>    -4.0010   117.8733    30.0168 </r>
       <r>    -3.9476    68.7057    33.6802 </r>
       <r>    -3.8943     8.6616    34.1420 </r>
       <r>    -3.8410    33.2594    35.9153 </r>
       <r>    -3.7877    59.6321    39.0948 </r>
       <r>    -3.7344    16.3443    39.9663 </r>
       <r>    -3.6810     0.6290    39.9998 </r>
       <r>    -3.6277     0.0030    40.0000 </r>
       <r>    -3.5744     0.0000    40.0000 </r>
       <r>    -3.5211     0.0000    40.0000 </r>
       <r>    -3.4678     0.0047    40.0003 </r>
       <r>    -3.4145     0.8489    40.0455 </r>
       <r>    -3.3611    19.1377    41.0659 </r>
       <r>    -3.3078    60.9063    44.3134 </r>
       <r>    -3.2545    29.5397    45.8884 </r>
       <r>    -3.2012     2.0746    45.9990 </r>
       <r>    -3.1479     0.0188    46.0000 </r>
       <r>    -3.0945     0.0078    46.0004 </r>
       <r>    -3.0412     1.1643    46.0625 </r>
       <r>    -2.9879    22.3493    47.2541 </r>
       <r>    -2.9346    61.4840    50.5324 </r>
       <r>    -2.8813    27.1801    51.9816 </r>
       <r>    -2.8279    33.7742    53.7824 </r>
       <r>    -2.7746   118.5448    60.1031 </r>
       <r>    -2.7213    67.3475    63.6939 </r>
       <r>    -2.6680     5.6767    63.9966 </r>
       <r>    -2.6147     0.0634    64.0000 </r>
       <r>    -2.5614     0.0001    64.0000 </r>
       <r>    -2.5080     0.0000    64.0000 </r>
       <r>    -2.4547     0.0000    64.0000 </r>
       <r>    -2.4014     0.0000    64.0000 </r>
       <r>    -2.3481     0.0000    64.0000 </r>
       <r>    -2.2948     0.0000    64.0000 </r>
       <r>    -2.2414     0.0000    64.0000 </r>
       <r>    -2.1881     0.0000    64.0000 </r>
       <r>    -2.1348     0.0000    64.0000 </r>
       <r>    -2.0815     0.0000    64.0000 </r>
       <r>    -2.0282     0.0000    64.0000 </r>
       <r>    -1.9748     0.0000    64.0000 </r>
       <r>    -1.9215     0.0000    64.0000 </r>
       <r>    -1.8682     0.0000    64.0000 </r>
       <r>    -1.8149     0.0000    64.0000 </r>
       <r>    -1.7616     0.0000    64.0000 </r>
       <r>    -1.7083     0.0000    64.0000 </r>
       <r>    -1.6549     0.0000    64.0000 </r>
       <r>    -1.6016     0.0000    64.0000 </r>
       <r>    -1.5483     0.0000    64.0000 </r>
       <r>    -1.4950     0.0000    64.0000 </r>
       <r>    -1.4417     0.0000    64.0000 </r>
       <r>    -1.3883     0.0100    64.0005 </r>
       <r>    -1.3350     1.7370    64.0932 </r>
       <r>    -1.2817    38.3817    66.1396 </r>
       <r>    -1.2284   123.0459    72.7003 </r>
       <r>    -1.1751    85.8137    77.2758 </r>
       <r>    -1.1217    66.3226    80.8120 </r>
       <r>    -1.0684    38.7245    82.8767 </r>
       <r>    -1.0151    64.1904    86.2993 </r>
       <r>    -0.9618    67.1573    89.8800 </r>
       <r>    -0.9085    61.2157    93.1440 </r>
       <r>    -0.8552    15.4690    93.9688 </r>
       <r>    -0.8018     0.5829    93.9998 </r>
       <r>    -0.7485     0.0028    94.0000 </r>
       <r>    -0.6952     0.0000    94.0000 </r>
       <r>    -0.6419     0.0000    94.0000 </r>
       <r>    -0.5886     0.0000    94.0000 </r>
       <r>    -0.5352     0.0000    94.0000 </r>
       <r>    -0.4819     0.0000    94.0000 </r>
       <r>    -0.4286     0.0000    94.0000 </r>
       <r>    -0.3753     0.0041    94.0002 </r>
       <r>    -0.3220     0.5338    94.0287 </r>
       <r>    -0.2686     9.0348    94.5104 </r>
       <r>    -0.2153    33.9821    96.3223 </r>
       <r>    -0.1620   101.3400   101.7256 </r>
       <r>    -0.1087   100.8473   107.1027 </r>
       <r>    -0.0554    16.4553   107.9800 </r>
       <r>    -0.0021     0.3733   107.9999 </r>
       <r>     0.0513     0.0011   108.0000 </r>
       <r>     0.1046     0.0000   108.0000 </r>
       <r>     0.1579     0.0000   108.0000 </r>
       <r>     0.2112     0.0000   108.0000 </r>
       <r>     0.2645     0.0000   108.0000 </r>
       <r>     0.3179     0.0000   108.0000 </r>
       <r>     0.3712     0.0000   108.0000 </r>
       <r>     0.4245     0.0000   108.0000 </r>
       <r>     0.4778     0.0000   108.0000 </r>
       <r>     0.5311     0.0000   108.0000 </r>
       <r>     0.5845     0.0144   108.0008 </r>
       <r>     0.6378     1.7388   108.0935 </r>
       <r>     0.6911    27.1399   109.5405 </r>
       <r>     0.7444    61.3409   112.8112 </r>
       <r>     0.7977    21.2405   113.9437 </r>
       <r>     0.8510     1.0497   113.9996 </r>
       <r>     0.9044     0.0097   114.0002 </r>
       <r>     0.9577     0.6450   114.0346 </r>
       <r>     1.0110    16.6737   114.9236 </r>
       <r>     1.0643    59.9767   118.1215 </r>
       <r>     1.1176    32.6351   119.8615 </r>
       <r>     1.1710     2.5710   119.9986 </r>
       <r>     1.2243     0.0261   120.0000 </r>
       <r>     1.2776     0.0000   120.0000 </r>
       <r>     1.3309     0.0000   120.0000 </r>
       <r>     1.3842     0.0000   120.0000 </r>
       <r>     1.4376     0.0000   120.0000 </r>
       <r>     1.4909     0.0003   120.0000 </r>
       <r>     1.5442     0.1646   120.0088 </r>
       <r>     1.5975    10.4234   120.5646 </r>
       <r>     1.6508    90.3264   125.3806 </r>
       <r>     1.7041   144.9348   133.1084 </r>
       <r>     1.7575    77.4982   137.2405 </r>
       <r>     1.8108    13.8159   137.9771 </r>
       <r>     1.8641     0.4270   137.9999 </r>
       <r>     1.9174     0.0017   138.0000 </r>
       <r>     1.9707     0.0000   138.0000 </r>
       <r>     2.0241     0.0000   138.0000 </r>
       <r>     2.0774     0.0000   138.0000 </r>
       <r>     2.1307     0.0061   138.0003 </r>
       <r>     2.1840     1.0100   138.0542 </r>
       <r>     2.2373    20.9920   139.1734 </r>
       <r>     2.2907    64.1527   142.5940 </r>
       <r>     2.3440    76.5495   146.6755 </r>
       <r>     2.3973   147.9108   154.5619 </r>
       <r>     2.4506   110.1283   160.4338 </r>
       <r>     2.5039    27.8810   161.9204 </r>
       <r>     2.5572     1.4816   161.9994 </r>
       <r>     2.6106     0.0618   162.0027 </r>
       <r>     2.6639     5.0314   162.2710 </r>
       <r>     2.7172    64.3799   165.7036 </r>
       <r>     2.7705   120.0919   172.1068 </r>
       <r>     2.8238    34.1374   173.9270 </r>
       <r>     2.8772     1.4012   174.0017 </r>
       <r>     2.9305     3.9675   174.2132 </r>
       <r>     2.9838    55.8762   177.1925 </r>
       <r>     3.0371   120.7855   183.6326 </r>
       <r>     3.0904    42.1666   185.8809 </r>
       <r>     3.1438     2.2185   185.9992 </r>
       <r>     3.1971     0.0158   186.0000 </r>
       <r>     3.2504     0.1019   186.0054 </r>
       <r>     3.3037     6.8671   186.3716 </r>
       <r>     3.3570    68.0927   190.0022 </r>
       <r>     3.4103   120.4567   196.4248 </r>
       <r>     3.4637    80.3578   200.7094 </r>
       <r>     3.5170    52.9777   203.5341 </r>
       <r>     3.5703     8.5461   203.9898 </r>
       <r>     3.6236     0.2994   204.0057 </r>
       <r>     3.6769     8.0634   204.4357 </r>
       <r>     3.7303    85.7434   209.0074 </r>
       <r>     3.7836   164.5516   217.7811 </r>
       <r>     3.8369    71.9403   221.6168 </r>
       <r>     3.8902     7.0701   221.9938 </r>
       <r>     3.9435     0.2318   222.0062 </r>
       <r>     3.9969     4.2166   222.2310 </r>
       <r>     4.0502    28.4495   223.7479 </r>
       <r>     4.1035    66.5293   227.2952 </r>
       <r>     4.1568    45.2710   229.7090 </r>
       <r>     4.2101     5.3843   229.9960 </r>
       <r>     4.2634     1.6790   230.0856 </r>
       <r>     4.3168    26.8092   231.5150 </r>
       <r>     4.3701    78.6001   235.7059 </r>
       <r>     4.4234    81.9324   240.0744 </r>
       <r>     4.4767    34.0535   241.8901 </r>
       <r>     4.5300    15.2800   242.7048 </r>
       <r>     4.5834    40.7120   244.8755 </r>
       <r>     4.6367    19.7083   245.9263 </r>
       <r>     4.6900     1.3696   245.9994 </r>
       <r>     4.7433     0.0320   246.0011 </r>
       <r>     4.7966     2.1443   246.1154 </r>
       <r>     4.8500    29.9202   247.7107 </r>
       <r>     4.9033    60.7490   250.9498 </r>
       <r>     4.9566    18.8632   251.9555 </r>
       <r>     5.0099     0.8295   251.9998 </r>
       <r>     5.0632     0.0046   252.0000 </r>
       <r>     5.1165     0.0000   252.0000 </r>
       <r>     5.1699     0.0000   252.0000 </r>
       <r>     5.2232     0.0129   252.0007 </r>
       <r>     5.2765     1.4258   252.0767 </r>
       <r>     5.3298    20.0720   253.1469 </r>
       <r>     5.3831    40.5838   255.3108 </r>
       <r>     5.4365    12.3948   255.9717 </r>
       <r>     5.4898     0.5283   255.9999 </r>
       <r>     5.5431     0.0028   256.0000 </r>
       <r>     5.5964     0.0000   256.0000 </r>
       <r>     5.6497     0.0000   256.0000 </r>
       <r>     5.7031     0.0000   256.0000 </r>
       <r>     5.7564     0.0000   256.0000 </r>
       <r>     5.8097     0.0000   256.0000 </r>
       <r>     5.8630     0.0000   256.0000 </r>
       <r>     5.9163     0.0000   256.0000 </r>
       <r>     5.9696     0.0000   256.0000 </r>
       <r>     6.0230     0.0000   256.0000 </r>
       <r>     6.0763     0.0000   256.0000 </r>
       <r>     6.1296     0.0000   256.0000 </r>
       <r>     6.1829     0.0000   256.0000 </r>
       <r>     6.2362     0.0000   256.0000 </r>
       <r>     6.2896     0.0000   256.0000 </r>
       <r>     6.3429     0.0000   256.0000 </r>
       <r>     6.3962     0.0001   256.0000 </r>
       <r>     6.4495     0.0734   256.0039 </r>
       <r>     6.5028     4.8449   256.2622 </r>
       <r>     6.5562    42.2509   258.5150 </r>
       <r>     6.6095    54.4905   261.4204 </r>
       <r>     6.6628    10.5889   261.9850 </r>
       <r>     6.7161     0.2810   262.0000 </r>
       <r>     6.7694     0.0009   262.0000 </r>
       <r>     6.8227     0.0000   262.0000 </r>
       <r>     6.8761     0.0167   262.0009 </r>
       <r>     6.9294     1.9208   262.1033 </r>
       <r>     6.9827    28.4656   263.6211 </r>
       <r>     7.0360    61.1251   266.8802 </r>
       <r>     7.0893    20.0631   267.9499 </r>
       <r>     7.1427     1.1214   268.0097 </r>
       <r>     7.1960     5.1750   268.2856 </r>
       <r>     7.2493    19.7805   269.3403 </r>
       <r>     7.3026    11.4093   269.9486 </r>
       <r>     7.3559     0.9611   269.9999 </r>
       <r>     7.4093     1.2145   270.0646 </r>
       <r>     7.4626    22.8482   271.2829 </r>
       <r>     7.5159    61.8483   274.5806 </r>
       <r>     7.5692    33.8955   276.3878 </r>
       <r>     7.6225    52.7602   279.2009 </r>
       <r>     7.6758    46.3820   281.6740 </r>
       <r>     7.7292    16.9489   282.5777 </r>
       <r>     7.7825    82.3919   286.9707 </r>
       <r>     7.8358   106.9139   292.6712 </r>
       <r>     7.8891    24.0786   293.9550 </r>
       <r>     7.9424     2.3304   294.0793 </r>
       <r>     7.9958    35.7830   295.9872 </r>
       <r>     8.0491   126.9518   302.7561 </r>
       <r>     8.1024    83.1270   307.1883 </r>
       <r>     8.1557    14.5097   307.9620 </r>
       <r>     8.2090     1.5642   308.0454 </r>
       <r>     8.2624    19.2402   309.0713 </r>
       <r>     8.3157    61.0090   312.3242 </r>
       <r>     8.3690    29.3922   313.8913 </r>
       <r>     8.4223     4.5590   314.1344 </r>
       <r>     8.4756    46.1453   316.5948 </r>
       <r>     8.5290   133.2427   323.6992 </r>
       <r>     8.5823    72.1548   327.5464 </r>
       <r>     8.6356     8.3110   327.9895 </r>
       <r>     8.6889     0.1961   328.0000 </r>
       <r>     8.7422     0.0007   328.0000 </r>
       <r>     8.7955     0.0000   328.0000 </r>
       <r>     8.8489     0.0000   328.0000 </r>
       <r>     8.9022     0.0000   328.0000 </r>
       <r>     8.9555     0.0000   328.0000 </r>
       <r>     9.0088     0.0000   328.0000 </r>
       <r>     9.0621     0.0000   328.0000 </r>
       <r>     9.1155     0.0000   328.0000 </r>
       <r>     9.1688     0.0000   328.0000 </r>
       <r>     9.2221     0.0000   328.0000 </r>
       <r>     9.2754     0.0000   328.0000 </r>
      </set>
     </set>
    </array>
   </total>
  </dos>
 </calculation>
 <structure name="finalpos" >
  <crystal>
   <varray name="basis" >
    <v>      10.93252578       0.00000000       0.00000000 </v>
    <v>       0.00000000      10.93252578       0.00000000 </v>
    <v>       0.00000000       0.00000000      10.93252578 </v>
   </varray>
   <i name="volume">   1306.65679237 </i>
   <varray name="rec_basis" >
    <v>       0.09147017       0.00000000       0.00000000 </v>
    <v>       0.00000000       0.09147017       0.00000000 </v>
    <v>       0.00000000       0.00000000       0.09147017 </v>
   </varray>
  </crystal>
  <varray name="positions" >
   <v>       0.44024411       0.43750000       0.43750000 </v>
   <v>       0.93750000       0.43750000       0.43750000 </v>
   <v>       0.43750000       0.93750000       0.43750000 </v>
   <v>       0.93750000       0.93750000       0.43750000 </v>
   <v>       0.43750000       0.43750000       0.93750000 </v>
   <v>       0.93750000       0.43750000       0.93750000 </v>
   <v>       0.43750000       0.93750000       0.93750000 </v>
   <v>       0.93750000       0.93750000       0.93750000 </v>
   <v>       0.43750000       0.18750000       0.18750000 </v>
   <v>       0.93750000       0.18750000       0.18750000 </v>
   <v>       0.43750000       0.68750000       0.18750000 </v>
   <v>       0.93750000       0.68750000       0.18750000 </v>
   <v>       0.43750000       0.18750000       0.68750000 </v>
   <v>       0.93750000       0.18750000       0.68750000 </v>
   <v>       0.43750000       0.68750000       0.68750000 </v>
   <v>       0.93750000       0.68750000       0.68750000 </v>
   <v>       0.18750000       0.43750000       0.18750000 </v>
   <v>       0.68750000       0.43750000       0.18750000 </v>
   <v>       0.18750000       0.93750000       0.18750000 </v>
   <v>       0.68750000       0.93750000       0.18750000 </v>
   <v>       0.18750000       0.43750000       0.68750000 </v>
   <v>       0.68750000       0.43750000       0.68750000 </v>
   <v>       0.18750000       0.93750000       0.68750000 </v>
   <v>       0.68750000       0.93750000       0.68750000 </v>
   <v>       0.18750000       0.18750000       0.43750000 </v>
   <v>       0.68750000       0.18750000       0.43750000 </v>
   <v>       0.18750000       0.68750000       0.43750000 </v>
   <v>       0.68750000       0.68750000       0.43750000 </v>
   <v>       0.18750000       0.18750000       0.93750000 </v>
   <v>       0.68750000       0.18750000       0.93750000 </v>
   <v>       0.18750000       0.68750000       0.93750000 </v>
   <v>       0.68750000       0.68750000       0.93750000 </v>
   <v>       0.06250000       0.06250000       0.06250000 </v>
   <v>       0.56250000       0.06250000       0.06250000 </v>
   <v>       0.06250000       0.56250000       0.06250000 </v>
   <v>       0.56250000       0.56250000       0.06250000 </v>
   <v>       0.06250000       0.06250000       0.56250000 </v>
   <v>       0.56250000       0.06250000       0.56250000 </v>
   <v>       0.06524411       0.56250000       0.56250000 </v>
   <v>       0.56250000       0.56250000       0.56250000 </v>
   <v>       0.06250000       0.31250000       0.31250000 </v>
   <v>       0.56250000       0.31250000       0.31250000 </v>
   <v>       0.06250000       0.81250000       0.31250000 </v>
   <v>       0.56250000       0.81250000       0.31250000 </v>
   <v>       0.06250000       0.31250000       0.81250000 </v>
   <v>       0.56250000       0.31250000       0.81250000 </v>
   <v>       0.06250000       0.81250000       0.81250000 </v>
   <v>       0.56250000       0.81250000       0.81250000 </v>
   <v>       0.31250000       0.06250000       0.31250000 </v>
   <v>       0.81250000       0.06250000       0.31250000 </v>
   <v>       0.31250000       0.56250000       0.31250000 </v>
   <v>       0.81250000       0.56250000       0.31250000 </v>
   <v>       0.31250000       0.06250000       0.81250000 </v>
   <v>       0.81250000       0.06250000       0.81250000 </v>
   <v>       0.31250000       0.56250000       0.81250000 </v>
   <v>       0.81250000       0.56250000       0.81250000 </v>
   <v>       0.31250000       0.31250000       0.06250000 </v>
   <v>       0.81250000       0.31250000       0.06250000 </v>
   <v>       0.31250000       0.81250000       0.06250000 </v>
   <v>       0.81250000       0.81250000       0.06250000 </v>
   <v>       0.31250000       0.31250000       0.56250000 </v>
   <v>       0.81250000       0.31250000       0.56250000 </v>
   <v>       0.31250000       0.81250000       0.56250000 </v>
   <v>       0.81250000       0.81250000       0.56250000 </v>
  </varray>
 </structure>
</modeling>
