
     Program PWSCF v.5.3.0 (svn rev. 11974) starts on  3Feb2016 at 13:39:38 

     This program is part of the open-source Quantum ESPRESSO suite
     for quantum simulation of materials; please cite
         "P. Giannozzi et al., J. Phys.:Condens. Matter 21 395502 (2009);
          URL http://www.quantum-espresso.org", 
     in publications or presentations arising from this work. More details at
     http://www.quantum-espresso.org/quote

     Parallel version (MPI), running on    16 processors
     R & G space division:  proc/nbgrp/npool/nimage =      16
     Reading input from Si.in

     Current dimensions of program PWSCF are:
     Max number of different atomic species (ntypx) = 10
     Max number of k-points (npk) =  40000
     Max angular momentum in pseudopotentials (lmaxx) =  3
               file Si.pbe-n-kjpaw_psl.0.1.UPF: wavefunction(s)  3S renormalized

     Subspace diagonalization in iterative solution of the eigenvalue problem:
     one sub-group per k-point group (pool) will be used
     scalapack distributed-memory algorithm (size of sub-group:  2*  2 procs)

 
     Parallelization info
     --------------------
     sticks:   dense  smooth     PW     G-vecs:    dense   smooth      PW
     Min         424     424    109                26332    26332    3467
     Max         425     425    110                26336    26336    3472
     Sum        6785    6785   1757               421349   421349   55515
 


     bravais-lattice index     =            0
     lattice parameter (alat)  =      20.6591  a.u.
     unit-cell volume          =    8817.2783 (a.u.)^3
     number of atoms/cell      =           64
     number of atomic types    =            1
     number of electrons       =       256.00
     number of Kohn-Sham states=          154
     kinetic-energy cutoff     =      50.0000  Ry
     charge density cutoff     =     200.0000  Ry
     convergence threshold     =      1.0E-09
     mixing beta               =       0.7000
     number of iterations used =            8  plain     mixing
     Exchange-correlation      =  SLA  PW   PBX  PBC ( 1  4  3  4 0 0)

     celldm(1)=  20.659106  celldm(2)=   0.000000  celldm(3)=   0.000000
     celldm(4)=   0.000000  celldm(5)=   0.000000  celldm(6)=   0.000000

     crystal axes: (cart. coord. in units of alat)
               a(1) = (   1.000000   0.000000   0.000000 )  
               a(2) = (   0.000000   1.000000   0.000000 )  
               a(3) = (   0.000000   0.000000   1.000000 )  

     reciprocal axes: (cart. coord. in units 2 pi/alat)
               b(1) = (  1.000000  0.000000  0.000000 )  
               b(2) = (  0.000000  1.000000  0.000000 )  
               b(3) = (  0.000000  0.000000  1.000000 )  


     PseudoPot. # 1 for Si read from file:
     /home/togo/espresso/pseudo/Si.pbe-n-kjpaw_psl.0.1.UPF
     MD5 check sum: b9d333a40e496bef61db012f150758bf
     Pseudo is Projector augmented-wave + core cor, Zval =  4.0
     Generated using "atomic" code by A. Dal Corso  v.5.0.2 svn rev. 9415
     Shape of augmentation charge: PSQ
     Using radial grid of 1141 points,  4 beta functions with: 
                l(1) =   0
                l(2) =   0
                l(3) =   1
                l(4) =   1
     Q(r) pseudized with 0 coefficients 


     atomic species   valence    mass     pseudopotential
        Si             4.00    28.08550     Si( 1.00)

      2 Sym. Ops. (no inversion) found ( 1 have fractional translation)



   Cartesian axes

     site n.     atom                  positions (alat units)
         1           Si  tau(   1) = (   0.4404043   0.4375000   0.4375000  )
         2           Si  tau(   2) = (   0.9375000   0.4375000   0.4375000  )
         3           Si  tau(   3) = (   0.4375000   0.9375000   0.4375000  )
         4           Si  tau(   4) = (   0.9375000   0.9375000   0.4375000  )
         5           Si  tau(   5) = (   0.4375000   0.4375000   0.9375000  )
         6           Si  tau(   6) = (   0.9375000   0.4375000   0.9375000  )
         7           Si  tau(   7) = (   0.4375000   0.9375000   0.9375000  )
         8           Si  tau(   8) = (   0.9375000   0.9375000   0.9375000  )
         9           Si  tau(   9) = (   0.4375000   0.1875000   0.1875000  )
        10           Si  tau(  10) = (   0.9375000   0.1875000   0.1875000  )
        11           Si  tau(  11) = (   0.4375000   0.6875000   0.1875000  )
        12           Si  tau(  12) = (   0.9375000   0.6875000   0.1875000  )
        13           Si  tau(  13) = (   0.4375000   0.1875000   0.6875000  )
        14           Si  tau(  14) = (   0.9375000   0.1875000   0.6875000  )
        15           Si  tau(  15) = (   0.4375000   0.6875000   0.6875000  )
        16           Si  tau(  16) = (   0.9375000   0.6875000   0.6875000  )
        17           Si  tau(  17) = (   0.1875000   0.4375000   0.1875000  )
        18           Si  tau(  18) = (   0.6875000   0.4375000   0.1875000  )
        19           Si  tau(  19) = (   0.1875000   0.9375000   0.1875000  )
        20           Si  tau(  20) = (   0.6875000   0.9375000   0.1904043  )
        21           Si  tau(  21) = (   0.1875000   0.4375000   0.6875000  )
        22           Si  tau(  22) = (   0.6875000   0.4375000   0.6875000  )
        23           Si  tau(  23) = (   0.1875000   0.9375000   0.6875000  )
        24           Si  tau(  24) = (   0.6875000   0.9375000   0.6875000  )
        25           Si  tau(  25) = (   0.1875000   0.1875000   0.4375000  )
        26           Si  tau(  26) = (   0.6875000   0.1875000   0.4375000  )
        27           Si  tau(  27) = (   0.1875000   0.6875000   0.4375000  )
        28           Si  tau(  28) = (   0.6875000   0.6875000   0.4375000  )
        29           Si  tau(  29) = (   0.1875000   0.1875000   0.9375000  )
        30           Si  tau(  30) = (   0.6875000   0.1875000   0.9375000  )
        31           Si  tau(  31) = (   0.1875000   0.6875000   0.9375000  )
        32           Si  tau(  32) = (   0.6875000   0.6875000   0.9375000  )
        33           Si  tau(  33) = (   0.0625000   0.0625000   0.0625000  )
        34           Si  tau(  34) = (   0.5625000   0.0625000   0.0625000  )
        35           Si  tau(  35) = (   0.0625000   0.5625000   0.0625000  )
        36           Si  tau(  36) = (   0.5625000   0.5625000   0.0625000  )
        37           Si  tau(  37) = (   0.0625000   0.0625000   0.5625000  )
        38           Si  tau(  38) = (   0.5625000   0.0625000   0.5625000  )
        39           Si  tau(  39) = (   0.0625000   0.5625000   0.5625000  )
        40           Si  tau(  40) = (   0.5625000   0.5625000   0.5625000  )
        41           Si  tau(  41) = (   0.0625000   0.3125000   0.3125000  )
        42           Si  tau(  42) = (   0.5625000   0.3125000   0.3125000  )
        43           Si  tau(  43) = (   0.0625000   0.8125000   0.3125000  )
        44           Si  tau(  44) = (   0.5625000   0.8125000   0.3125000  )
        45           Si  tau(  45) = (   0.0625000   0.3125000   0.8125000  )
        46           Si  tau(  46) = (   0.5625000   0.3125000   0.8125000  )
        47           Si  tau(  47) = (   0.0625000   0.8125000   0.8125000  )
        48           Si  tau(  48) = (   0.5625000   0.8125000   0.8125000  )
        49           Si  tau(  49) = (   0.3125000   0.0625000   0.3125000  )
        50           Si  tau(  50) = (   0.8125000   0.0625000   0.3125000  )
        51           Si  tau(  51) = (   0.3125000   0.5625000   0.3125000  )
        52           Si  tau(  52) = (   0.8125000   0.5625000   0.3125000  )
        53           Si  tau(  53) = (   0.3125000   0.0625000   0.8125000  )
        54           Si  tau(  54) = (   0.8125000   0.0625000   0.8125000  )
        55           Si  tau(  55) = (   0.3125000   0.5625000   0.8125000  )
        56           Si  tau(  56) = (   0.8125000   0.5625000   0.8125000  )
        57           Si  tau(  57) = (   0.3125000   0.3125000   0.0625000  )
        58           Si  tau(  58) = (   0.8125000   0.3125000   0.0625000  )
        59           Si  tau(  59) = (   0.3125000   0.8125000   0.0625000  )
        60           Si  tau(  60) = (   0.8125000   0.8125000   0.0625000  )
        61           Si  tau(  61) = (   0.3125000   0.3125000   0.5625000  )
        62           Si  tau(  62) = (   0.8125000   0.3125000   0.5625000  )
        63           Si  tau(  63) = (   0.3125000   0.8125000   0.5625000  )
        64           Si  tau(  64) = (   0.8125000   0.8125000   0.5625000  )

     number of k points=     3  gaussian smearing, width (Ry)=  0.0100
                       cart. coord. in units 2pi/alat
        k(    1) = (   0.2500000   0.2500000   0.2500000), wk =   0.5000000
        k(    2) = (  -0.2500000   0.2500000  -0.2500000), wk =   0.5000000
        k(    3) = (   0.2500000  -0.2500000  -0.2500000), wk =   1.0000000

     Dense  grid:   421349 G-vectors     FFT dimensions: (  96,  96,  96)

     Largest allocated arrays     est. size (Mb)     dimensions
        Kohn-Sham Wavefunctions         7.72 Mb     (    3285,  154)
        NL pseudopotentials            25.66 Mb     (    3285,  512)
        Each V/rho on FFT grid          0.84 Mb     (   55296)
        Each G-vector array             0.20 Mb     (   26336)
        G-vector shells                 0.01 Mb     (    1719)
     Largest temporary arrays     est. size (Mb)     dimensions
        Auxiliary wavefunctions        30.88 Mb     (    3285,  616)
        Each subspace H/S matrix        1.45 Mb     (     308,  308)
        Each <psi_i|beta_j> matrix      1.20 Mb     (     512,  154)
        Arrays for rho mixing           6.75 Mb     (   55296,    8)

     Check: negative/imaginary core charge=   -0.000001    0.000000

     Initial potential from superposition of free atoms

     starting charge  255.96421, renormalised to  256.00000
     Starting wfc are  256 randomized atomic wfcs
     Checking if some PAW data can be deallocated... 

     total cpu time spent up to now is        9.8 secs

     per-process dynamical memory:   115.9 Mb

     Self-consistent Calculation

     iteration #  1     ecut=    50.00 Ry     beta=0.70
     Davidson diagonalization with overlap
     ethr =  1.00E-02,  avg # of iterations =  3.0

     Threshold (ethr) on eigenvalues was too large:
     Diagonalizing with lowered threshold

     Davidson diagonalization with overlap
     ethr =  7.00E-04,  avg # of iterations =  1.0

     total cpu time spent up to now is       40.5 secs

     total energy              =   -2990.45692489 Ry
     Harris-Foulkes estimate   =   -2990.87659668 Ry
     estimated scf accuracy    <       1.77357808 Ry

     iteration #  2     ecut=    50.00 Ry     beta=0.70
     Davidson diagonalization with overlap
     ethr =  6.93E-04,  avg # of iterations =  1.0

     total cpu time spent up to now is       51.6 secs

     total energy              =   -2990.52362860 Ry
     Harris-Foulkes estimate   =   -2990.52746090 Ry
     estimated scf accuracy    <       0.07625453 Ry

     iteration #  3     ecut=    50.00 Ry     beta=0.70
     Davidson diagonalization with overlap
     ethr =  2.98E-05,  avg # of iterations = 10.7

     total cpu time spent up to now is       77.4 secs

     total energy              =   -2990.53070059 Ry
     Harris-Foulkes estimate   =   -2990.53134817 Ry
     estimated scf accuracy    <       0.00181244 Ry

     iteration #  4     ecut=    50.00 Ry     beta=0.70
     Davidson diagonalization with overlap
     ethr =  7.08E-07,  avg # of iterations =  6.7

     total cpu time spent up to now is      106.7 secs

     total energy              =   -2990.53079603 Ry
     Harris-Foulkes estimate   =   -2990.53231522 Ry
     estimated scf accuracy    <       0.00453405 Ry

     iteration #  5     ecut=    50.00 Ry     beta=0.70
     Davidson diagonalization with overlap
     ethr =  7.08E-07,  avg # of iterations =  3.0

     total cpu time spent up to now is      123.0 secs

     total energy              =   -2990.53149900 Ry
     Harris-Foulkes estimate   =   -2990.53158916 Ry
     estimated scf accuracy    <       0.00024987 Ry

     iteration #  6     ecut=    50.00 Ry     beta=0.70
     Davidson diagonalization with overlap
     ethr =  9.76E-08,  avg # of iterations =  3.0

     total cpu time spent up to now is      141.0 secs

     total energy              =   -2990.53154655 Ry
     Harris-Foulkes estimate   =   -2990.53156599 Ry
     estimated scf accuracy    <       0.00006012 Ry

     iteration #  7     ecut=    50.00 Ry     beta=0.70
     Davidson diagonalization with overlap
     ethr =  2.35E-08,  avg # of iterations =  2.0

     total cpu time spent up to now is      154.4 secs

     total energy              =   -2990.53155634 Ry
     Harris-Foulkes estimate   =   -2990.53155696 Ry
     estimated scf accuracy    <       0.00000142 Ry

     iteration #  8     ecut=    50.00 Ry     beta=0.70
     Davidson diagonalization with overlap
     ethr =  5.54E-10,  avg # of iterations =  3.0

     total cpu time spent up to now is      174.2 secs

     total energy              =   -2990.53155710 Ry
     Harris-Foulkes estimate   =   -2990.53155724 Ry
     estimated scf accuracy    <       0.00000020 Ry

     iteration #  9     ecut=    50.00 Ry     beta=0.70
     Davidson diagonalization with overlap
     ethr =  7.83E-11,  avg # of iterations =  2.0

     total cpu time spent up to now is      188.3 secs

     total energy              =   -2990.53155707 Ry
     Harris-Foulkes estimate   =   -2990.53155714 Ry
     estimated scf accuracy    <       0.00000010 Ry

     iteration # 10     ecut=    50.00 Ry     beta=0.70
     Davidson diagonalization with overlap
     ethr =  4.01E-11,  avg # of iterations =  3.0

     total cpu time spent up to now is      203.0 secs

     total energy              =   -2990.53155707 Ry
     Harris-Foulkes estimate   =   -2990.53155709 Ry
     estimated scf accuracy    <       0.00000002 Ry

     iteration # 11     ecut=    50.00 Ry     beta=0.70
     Davidson diagonalization with overlap
     ethr =  8.09E-12,  avg # of iterations =  2.0

     total cpu time spent up to now is      216.6 secs

     total energy              =   -2990.53155707 Ry
     Harris-Foulkes estimate   =   -2990.53155707 Ry
     estimated scf accuracy    <          2.1E-09 Ry

     iteration # 12     ecut=    50.00 Ry     beta=0.70
     Davidson diagonalization with overlap
     ethr =  8.12E-13,  avg # of iterations =  3.0

     total cpu time spent up to now is      232.8 secs

     End of self-consistent calculation

          k = 0.2500 0.2500 0.2500 ( 52563 PWs)   bands (ev):

    -5.6250  -5.0996  -5.0968  -5.0929  -4.5996  -4.5972  -4.5934  -4.1621
    -4.0664  -4.0635  -4.0589  -3.6584  -3.6504  -3.6470  -3.6450  -3.6434
    -3.6413  -3.4594  -3.4549  -3.4520  -2.9598  -2.9582  -2.9521  -2.5937
    -2.5893  -2.5860  -2.4308  -2.4241  -2.4207  -2.4198  -2.4162  -2.4149
    -0.8850  -0.8836  -0.8780  -0.8757  -0.8723  -0.8723  -0.7824  -0.7800
    -0.7761  -0.6633  -0.6621  -0.6561  -0.5846  -0.5815  -0.5750   0.1225
     0.2059   0.2072   0.2103   0.2146   0.2168   0.2189   1.0767   1.0843
     1.0879   1.4153   1.4183   1.4215   2.0237   2.0265   2.0294   2.0301
     2.0315   2.0344   2.0879   2.0886   2.0916   2.6366   2.6376   2.6402
     2.7402   2.7407   2.7437   2.7443   2.7471   2.7506   2.7939   2.7998
     2.8026   3.1020   3.1052   3.1065   3.1080   3.1089   3.1137   3.3708
     3.3724   3.3751   3.3846   3.3876   3.3908   3.7305   3.7312   3.7357
     3.7508   3.7531   3.7567   3.8382   3.8418   3.8420   4.1046   4.1072
     4.1125   4.1136   4.1143   4.1165   4.1525   4.1563   4.1567   4.4089
     4.4711   4.4718   4.4770   4.7136   4.7178   4.7180   4.7690   4.7750
     4.7783   4.9350   4.9399   5.2425   5.2480   5.2486   5.7236   5.7292
     6.9345   6.9383   6.9410   7.3729   7.3767   7.3829   7.6002   7.8593
     7.8631   7.8682   7.9873   7.9897   7.9937   8.1488   8.1501   8.1559
     8.1667   8.1684   8.1752   8.3953   8.3960   8.3995   8.4022   8.4049
     8.4052   8.4506

          k =-0.2500 0.2500-0.2500 ( 52563 PWs)   bands (ev):

    -5.6251  -5.0995  -5.0984  -5.0908  -4.6000  -4.5988  -4.5915  -4.1642
    -4.0671  -4.0657  -4.0584  -3.6509  -3.6500  -3.6493  -3.6482  -3.6456
    -3.6356  -3.4576  -3.4547  -3.4498  -2.9640  -2.9620  -2.9552  -2.5924
    -2.5891  -2.5853  -2.4254  -2.4237  -2.4225  -2.4209  -2.4197  -2.4105
    -0.8842  -0.8831  -0.8802  -0.8783  -0.8756  -0.8717  -0.7847  -0.7808
    -0.7778  -0.6679  -0.6626  -0.6614  -0.5776  -0.5720  -0.5658   0.1300
     0.2039   0.2041   0.2083   0.2087   0.2149   0.2158   1.0830   1.0883
     1.0920   1.4155   1.4186   1.4208   2.0259   2.0273   2.0273   2.0296
     2.0297   2.0344   2.0849   2.0874   2.0888   2.6400   2.6427   2.6434
     2.7359   2.7395   2.7406   2.7435   2.7446   2.7471   2.7918   2.7937
     2.7970   3.1021   3.1050   3.1057   3.1077   3.1118   3.1141   3.3671
     3.3712   3.3729   3.3829   3.3849   3.3877   3.7336   3.7344   3.7408
     3.7562   3.7615   3.7621   3.8355   3.8384   3.8413   4.1114   4.1133
     4.1139   4.1164   4.1218   4.1249   4.1492   4.1522   4.1557   4.4169
     4.4646   4.4698   4.4717   4.7097   4.7123   4.7156   4.7790   4.7842
     4.7880   4.9324   4.9375   5.2372   5.2403   5.2449   5.7188   5.7244
     6.9311   6.9343   6.9381   7.3739   7.3740   7.3799   7.5972   7.8577
     7.8593   7.8635   7.9893   7.9939   7.9964   8.1481   8.1508   8.1530
     8.1645   8.1698   8.1717   8.3982   8.3996   8.4026   8.4045   8.4100
     8.4103   8.4458

          k = 0.2500-0.2500-0.2500 ( 52563 PWs)   bands (ev):

    -5.6250  -5.1000  -5.0970  -5.0919  -4.6003  -4.5974  -4.5925  -4.1632
    -4.0670  -4.0643  -4.0588  -3.6559  -3.6495  -3.6487  -3.6463  -3.6452
    -3.6368  -3.4592  -3.4548  -3.4503  -2.9620  -2.9600  -2.9536  -2.5945
    -2.5892  -2.5841  -2.4292  -2.4231  -2.4224  -2.4200  -2.4186  -2.4114
    -0.8872  -0.8813  -0.8790  -0.8774  -0.8754  -0.8694  -0.7858  -0.7803
    -0.7751  -0.6678  -0.6624  -0.6565  -0.5818  -0.5759  -0.5705   0.1263
     0.2012   0.2067   0.2104   0.2113   0.2147   0.2202   1.0803   1.0850
     1.0908   1.4142   1.4181   1.4227   2.0247   2.0269   2.0276   2.0296
     2.0309   2.0354   2.0857   2.0881   2.0907   2.6372   2.6401   2.6430
     2.7374   2.7390   2.7421   2.7439   2.7478   2.7485   2.7928   2.7958
     2.8010   3.1021   3.1043   3.1067   3.1073   3.1096   3.1154   3.3698
     3.3719   3.3735   3.3823   3.3862   3.3902   3.7308   3.7350   3.7377
     3.7518   3.7565   3.7614   3.8368   3.8390   3.8428   4.1057   4.1122
     4.1131   4.1145   4.1170   4.1228   4.1507   4.1531   4.1577   4.4129
     4.4687   4.4713   4.4731   4.7113   4.7141   4.7179   4.7745   4.7786
     4.7839   4.9319   4.9406   5.2394   5.2431   5.2482   5.7191   5.7289
     6.9330   6.9360   6.9397   7.3716   7.3780   7.3806   7.5987   7.8569
     7.8632   7.8654   7.9870   7.9918   7.9962   8.1471   8.1521   8.1544
     8.1673   8.1692   8.1715   8.3949   8.3988   8.4016   8.4026   8.4061
     8.4102   8.4482

     the Fermi energy is     6.3277 ev

!    total energy              =   -2990.53155708 Ry
     Harris-Foulkes estimate   =   -2990.53155708 Ry
     estimated scf accuracy    <          9.3E-10 Ry

     total all-electron energy =    -37124.667110 Ry

     The total energy is the sum of the following terms:

     one-electron contribution =     178.60646855 Ry
     hartree contribution      =      35.70147118 Ry
     xc contribution           =    -391.44199566 Ry
     ewald contribution        =    -534.00619892 Ry
     one-center paw contrib.   =   -2279.39130224 Ry
     smearing contrib. (-TS)   =       0.00000000 Ry

     convergence has been achieved in  12 iterations

     Forces acting on atoms (Ry/au):

     atom    1 type  1   force =    -0.01581453   -0.00000920    0.00004190
     atom    2 type  1   force =    -0.00005382    0.00001003    0.00004276
     atom    3 type  1   force =    -0.00017837   -0.00011309    0.00023830
     atom    4 type  1   force =     0.00022528    0.00011289    0.00023839
     atom    5 type  1   force =    -0.00002288   -0.00001009    0.00004358
     atom    6 type  1   force =     0.00006966    0.00000928    0.00004258
     atom    7 type  1   force =    -0.00024753   -0.00011025    0.00023207
     atom    8 type  1   force =    -0.00020255    0.00011005    0.00023066
     atom    9 type  1   force =    -0.00063730    0.00022487   -0.00040852
     atom   10 type  1   force =    -0.00011499   -0.00010449   -0.00052022
     atom   11 type  1   force =    -0.00040852    0.00022487   -0.00063730
     atom   12 type  1   force =     0.00010922   -0.00010077   -0.00053399
     atom   13 type  1   force =    -0.00053399   -0.00010077    0.00010922
     atom   14 type  1   force =    -0.00000746   -0.00001809    0.00001118
     atom   15 type  1   force =    -0.00052022   -0.00010449   -0.00011499
     atom   16 type  1   force =     0.00001118   -0.00001809   -0.00000746
     atom   17 type  1   force =     0.00023207   -0.00011025   -0.00024753
     atom   18 type  1   force =     0.00023830   -0.00011309   -0.00017837
     atom   19 type  1   force =     0.00004358   -0.00001009   -0.00002288
     atom   20 type  1   force =     0.00004190   -0.00000920   -0.01581453
     atom   21 type  1   force =     0.00023066    0.00011005   -0.00020255
     atom   22 type  1   force =     0.00023839    0.00011289    0.00022528
     atom   23 type  1   force =     0.00004258    0.00000928    0.00006966
     atom   24 type  1   force =     0.00004276    0.00001003   -0.00005382
     atom   25 type  1   force =     0.00024248    0.00015099   -0.00006580
     atom   26 type  1   force =     0.00035102   -0.00000103    0.00012414
     atom   27 type  1   force =     0.00022217   -0.00015115    0.00015335
     atom   28 type  1   force =     0.00012414   -0.00000103    0.00035102
     atom   29 type  1   force =     0.00005095    0.00000009    0.00003271
     atom   30 type  1   force =     0.00015335   -0.00015115    0.00022217
     atom   31 type  1   force =     0.00003271    0.00000009    0.00005095
     atom   32 type  1   force =    -0.00006580    0.00015099    0.00024248
     atom   33 type  1   force =     0.00001550   -0.00002044   -0.00002845
     atom   34 type  1   force =     0.00273884   -0.00245484    0.00384104
     atom   35 type  1   force =     0.00005249   -0.00000145    0.00027758
     atom   36 type  1   force =    -0.00000803    0.00001299   -0.00001912
     atom   37 type  1   force =     0.00005485   -0.00000356    0.00005633
     atom   38 type  1   force =    -0.00002349    0.00000079    0.00003732
     atom   39 type  1   force =     0.00001891    0.00000784    0.00001738
     atom   40 type  1   force =     0.00395721    0.00267786    0.00273174
     atom   41 type  1   force =    -0.00003975   -0.00006517    0.00021786
     atom   42 type  1   force =     0.00387741   -0.00274368   -0.00276668
     atom   43 type  1   force =    -0.00001209   -0.00007565   -0.00008703
     atom   44 type  1   force =    -0.00276668   -0.00274368    0.00387741
     atom   45 type  1   force =    -0.00000625   -0.00005805   -0.00004689
     atom   46 type  1   force =    -0.00008703   -0.00007565   -0.00001209
     atom   47 type  1   force =    -0.00004689   -0.00005805   -0.00000625
     atom   48 type  1   force =     0.00021786   -0.00006517   -0.00003975
     atom   49 type  1   force =    -0.00001912    0.00001299   -0.00000803
     atom   50 type  1   force =     0.00273174    0.00267786    0.00395721
     atom   51 type  1   force =     0.00384104   -0.00245484    0.00273884
     atom   52 type  1   force =     0.00003732    0.00000079   -0.00002349
     atom   53 type  1   force =     0.00027758   -0.00000145    0.00005249
     atom   54 type  1   force =     0.00001738    0.00000784    0.00001891
     atom   55 type  1   force =    -0.00002845   -0.00002044    0.00001550
     atom   56 type  1   force =     0.00005633   -0.00000356    0.00005485
     atom   57 type  1   force =    -0.00008579    0.00008016    0.00021596
     atom   58 type  1   force =    -0.00002288    0.00006668   -0.00008605
     atom   59 type  1   force =     0.00021596    0.00008016   -0.00008579
     atom   60 type  1   force =    -0.00250359    0.00251109    0.00378110
     atom   61 type  1   force =     0.00378110    0.00251109   -0.00250359
     atom   62 type  1   force =    -0.00004102    0.00006539   -0.00000888
     atom   63 type  1   force =    -0.00008605    0.00006668   -0.00002288
     atom   64 type  1   force =    -0.00000888    0.00006539   -0.00004102

     Total force =     0.027130     Total SCF correction =     0.000051

     Writing output data file pwscf.save
 
     init_run     :      7.37s CPU      7.53s WALL (       1 calls)
     electrons    :    211.55s CPU    223.24s WALL (       1 calls)
     forces       :      3.64s CPU      3.83s WALL (       1 calls)

     Called by init_run:
     wfcinit      :      6.63s CPU      6.74s WALL (       1 calls)
     potinit      :      0.26s CPU      0.27s WALL (       1 calls)

     Called by electrons:
     c_bands      :    187.58s CPU    193.39s WALL (      13 calls)
     sum_band     :     19.28s CPU     23.26s WALL (      13 calls)
     v_of_rho     :      0.79s CPU      0.80s WALL (      13 calls)
     newd         :      1.53s CPU      1.56s WALL (      13 calls)
     PAW_pot      :      2.16s CPU      2.17s WALL (      13 calls)
     mix_rho      :      0.44s CPU      0.45s WALL (      13 calls)

     Called by c_bands:
     init_us_2    :      3.75s CPU      3.82s WALL (      84 calls)
     cegterg      :    182.67s CPU    188.00s WALL (      39 calls)

     Called by sum_band:
     sum_band:bec :      0.03s CPU      0.03s WALL (      39 calls)
     addusdens    :      1.57s CPU      1.77s WALL (      13 calls)

     Called by *egterg:
     h_psi        :     85.45s CPU     85.77s WALL (     172 calls)
     s_psi        :     21.80s CPU     21.83s WALL (     172 calls)
     g_psi        :      0.83s CPU      0.83s WALL (     130 calls)
     cdiaghg      :     24.98s CPU     25.04s WALL (     166 calls)

     Called by h_psi:
     add_vuspsi   :     22.45s CPU     22.52s WALL (     172 calls)

     General routines
     calbec       :     34.43s CPU     34.54s WALL (     223 calls)
     fft          :      0.39s CPU      0.41s WALL (     182 calls)
     fftw         :     39.81s CPU     40.06s WALL (   39512 calls)
     davcio       :      0.00s CPU      0.03s WALL (       3 calls)
 
     Parallel routines
     fft_scatter  :     11.76s CPU     11.27s WALL (   39694 calls)
 
     PWSCF        :  3m42.91s CPU     4m 5.14s WALL

 
   This run was terminated on:  13:43:43   3Feb2016            

=------------------------------------------------------------------------------=
   JOB DONE.
=------------------------------------------------------------------------------=
