<?xml version="1.0" encoding="ISO-8859-1"?>
<modeling>
 <generator>
  <i name="program" type="string">vasp </i>
  <i name="version" type="string">5.4.1  </i>
  <i name="subversion" type="string">05Feb16 (build Mar 26 2016 11:58:25) complex                          parallel </i>
  <i name="platform" type="string">IFC91_ompi </i>
  <i name="date" type="string">2017 03 12 </i>
  <i name="time" type="string">12:13:57 </i>
 </generator>
 <incar>
  <i type="string" name="PREC">accurate</i>
  <i type="int" name="IALGO">    38</i>
  <i type="logical" name="ADDGRID"> T  </i>
  <i type="int" name="NELMIN">     5</i>
  <i type="int" name="IBRION">    -1</i>
  <i name="EDIFF">      0.00000001</i>
  <i name="ENCUT">    300.00000000</i>
  <i type="logical" name="LREAL"> F  </i>
  <i type="int" name="ISMEAR">     0</i>
  <i name="SIGMA">      0.05000000</i>
  <i type="logical" name="LWAVE"> F  </i>
  <i type="logical" name="LCHARG"> F  </i>
  <v type="int" name="KPOINT_BSE">    -1     0     0     0</v>
 </incar>
 <kpoints>
  <generation param="Monkhorst-Pack">
   <v type="int" name="divisions">       2        2        2 </v>
   <v name="usershift">      0.00000000       0.00000000       0.00000000 </v>
   <v name="genvec1">      0.50000000       0.00000000       0.00000000 </v>
   <v name="genvec2">      0.00000000       0.50000000       0.00000000 </v>
   <v name="genvec3">      0.00000000       0.00000000       0.50000000 </v>
   <v name="shift">      0.50000000       0.50000000       0.50000000 </v>
  </generation>
  <varray name="kpointlist" >
   <v>       0.25000000       0.25000000       0.25000000 </v>
   <v>       0.25000000      -0.25000000       0.25000000 </v>
  </varray>
  <varray name="weights" >
   <v>       0.50000000 </v>
   <v>       0.50000000 </v>
  </varray>
 </kpoints>
 <parameters>
  <separator name="general" >
   <i type="string" name="SYSTEM">unknown system</i>
   <i type="logical" name="LCOMPAT"> F  </i>
  </separator>
  <separator name="electronic" >
   <i type="string" name="PREC">accura</i>
   <i name="ENMAX">    300.00000000</i>
   <i name="ENAUG">    322.06900000</i>
   <i name="EDIFF">      0.00000001</i>
   <i type="int" name="IALGO">    38</i>
   <i type="int" name="IWAVPR">    10</i>
   <i type="int" name="NBANDS">   164</i>
   <i name="NELECT">    256.00000000</i>
   <i type="int" name="TURBO">     0</i>
   <i type="int" name="IRESTART">     0</i>
   <i type="int" name="NREBOOT">     0</i>
   <i type="int" name="NMIN">     0</i>
   <i name="EREF">      0.00000000</i>
   <separator name="electronic smearing" >
    <i type="int" name="ISMEAR">     0</i>
    <i name="SIGMA">      0.05000000</i>
    <i name="KSPACING">      0.50000000</i>
    <i type="logical" name="KGAMMA"> T  </i>
   </separator>
   <separator name="electronic projectors" >
    <i type="logical" name="LREAL"> F  </i>
    <v name="ROPT">      0.00000000</v>
    <i type="int" name="LMAXPAW">  -100</i>
    <i type="int" name="LMAXMIX">     2</i>
    <i type="logical" name="NLSPLINE"> F  </i>
   </separator>
   <separator name="electronic startup" >
    <i type="int" name="ISTART">     0</i>
    <i type="int" name="ICHARG">     2</i>
    <i type="int" name="INIWAV">     1</i>
   </separator>
   <separator name="electronic spin" >
    <i type="int" name="ISPIN">     1</i>
    <i type="logical" name="LNONCOLLINEAR"> F  </i>
    <v name="MAGMOM">      1.00000000      1.00000000      1.00000000      1.00000000      1.00000000      1.00000000      1.00000000      1.00000000      1.00000000      1.00000000      1.00000000      1.00000000      1.00000000      1.00000000      1.00000000      1.00000000      1.00000000      1.00000000      1.00000000      1.00000000
      1.00000000      1.00000000      1.00000000      1.00000000      1.00000000      1.00000000      1.00000000      1.00000000      1.00000000      1.00000000      1.00000000      1.00000000      1.00000000      1.00000000      1.00000000      1.00000000      1.00000000      1.00000000      1.00000000      1.00000000
      1.00000000      1.00000000      1.00000000      1.00000000      1.00000000      1.00000000      1.00000000      1.00000000      1.00000000      1.00000000      1.00000000      1.00000000      1.00000000      1.00000000      1.00000000      1.00000000      1.00000000      1.00000000      1.00000000      1.00000000
      1.00000000      1.00000000      1.00000000      1.00000000</v>
    <i name="NUPDOWN">     -1.00000000</i>
    <i type="logical" name="LSORBIT"> F  </i>
    <v name="SAXIS">      0.00000000      0.00000000      1.00000000</v>
    <i type="logical" name="LSPIRAL"> F  </i>
    <v name="QSPIRAL">      0.00000000      0.00000000      0.00000000</v>
    <i type="logical" name="LZEROZ"> F  </i>
   </separator>
   <separator name="electronic exchange-correlation" >
    <i type="logical" name="LASPH"> F  </i>
    <i type="logical" name="LMETAGGA"> F  </i>
   </separator>
   <separator name="electronic convergence" >
    <i type="int" name="NELM">    60</i>
    <i type="int" name="NELMDL">    -5</i>
    <i type="int" name="NELMIN">     5</i>
    <i name="ENINI">    300.00000000</i>
    <separator name="electronic convergence detail" >
     <i type="logical" name="LDIAG"> T  </i>
     <i type="logical" name="LSUBROT"> F  </i>
     <i name="WEIMIN">      0.00000000</i>
     <i name="EBREAK">      0.00000000</i>
     <i name="DEPER">      0.30000000</i>
     <i type="int" name="NRMM">     4</i>
     <i name="TIME">      0.40000000</i>
    </separator>
   </separator>
   <separator name="electronic mixer" >
    <i name="AMIX">      0.40000000</i>
    <i name="BMIX">      1.00000000</i>
    <i name="AMIN">      0.10000000</i>
    <i name="AMIX_MAG">      1.60000000</i>
    <i name="BMIX_MAG">      1.00000000</i>
    <separator name="electronic mixer details" >
     <i type="int" name="IMIX">     4</i>
     <i type="logical" name="MIXFIRST"> F  </i>
     <i type="int" name="MAXMIX">   -45</i>
     <i name="WC">    100.00000000</i>
     <i type="int" name="INIMIX">     1</i>
     <i type="int" name="MIXPRE">     1</i>
     <i type="int" name="MREMOVE">     5</i>
    </separator>
   </separator>
   <separator name="electronic dipolcorrection" >
    <i type="logical" name="LDIPOL"> F  </i>
    <i type="logical" name="LMONO"> F  </i>
    <i type="int" name="IDIPOL">     0</i>
    <i name="EPSILON">      1.00000000</i>
    <v name="DIPOL">   -100.00000000   -100.00000000   -100.00000000</v>
    <i name="EFIELD">      0.00000000</i>
   </separator>
  </separator>
  <separator name="grids" >
   <i type="int" name="NGX">    64</i>
   <i type="int" name="NGY">    64</i>
   <i type="int" name="NGZ">    64</i>
   <i type="int" name="NGXF">   128</i>
   <i type="int" name="NGYF">   128</i>
   <i type="int" name="NGZF">   128</i>
   <i type="logical" name="ADDGRID"> T  </i>
  </separator>
  <separator name="ionic" >
   <i type="int" name="NSW">     0</i>
   <i type="int" name="IBRION">    -1</i>
   <i type="int" name="ISIF">     2</i>
   <i name="PSTRESS">      0.00000000</i>
   <i name="EDIFFG">      0.00000010</i>
   <i type="int" name="NFREE">     0</i>
   <i name="POTIM">      0.50000000</i>
   <i name="SMASS">     -3.00000000</i>
   <i name="SCALEE">      1.00000000</i>
  </separator>
  <separator name="ionic md" >
   <i name="TEBEG">      0.00010000</i>
   <i name="TEEND">      0.00010000</i>
   <i type="int" name="NBLOCK">     1</i>
   <i type="int" name="KBLOCK">     1</i>
   <i type="int" name="NPACO">   256</i>
   <i name="APACO">     16.00000000</i>
  </separator>
  <separator name="symmetry" >
   <i type="int" name="ISYM">     2</i>
   <i name="SYMPREC">      0.00001000</i>
  </separator>
  <separator name="dos" >
   <i type="logical" name="LORBIT"> F  </i>
   <v name="RWIGS">     -1.00000000</v>
   <i type="int" name="NEDOS">   301</i>
   <i name="EMIN">     10.00000000</i>
   <i name="EMAX">    -10.00000000</i>
   <i name="EFERMI">      0.00000000</i>
  </separator>
  <separator name="writing" >
   <i type="int" name="NWRITE">     2</i>
   <i type="logical" name="LWAVE"> F  </i>
   <i type="logical" name="LCHARG"> F  </i>
   <i type="logical" name="LPARD"> F  </i>
   <i type="logical" name="LVTOT"> F  </i>
   <i type="logical" name="LVHAR"> F  </i>
   <i type="logical" name="LELF"> F  </i>
   <i type="logical" name="LOPTICS"> F  </i>
   <v name="STM">      0.00000000      0.00000000      0.00000000      0.00000000      0.00000000      0.00000000      0.00000000</v>
  </separator>
  <separator name="performance" >
   <i type="int" name="NPAR">     4</i>
   <i type="int" name="NSIM">     4</i>
   <i type="int" name="NBLK">    -1</i>
   <i type="logical" name="LPLANE"> T  </i>
   <i type="logical" name="LSCALAPACK"> T  </i>
   <i type="logical" name="LSCAAWARE"> F  </i>
   <i type="logical" name="LSCALU"> F  </i>
   <i type="logical" name="LASYNC"> F  </i>
   <i type="logical" name="LORBITALREAL"> F  </i>
  </separator>
  <separator name="miscellaneous" >
   <i type="int" name="IDIOT">     3</i>
   <i type="logical" name="LMUSIC"> F  </i>
   <v name="POMASS">     28.08500000</v>
   <v name="DARWINR">      0.00000000</v>
   <v name="DARWINV">      1.00000000</v>
   <i type="logical" name="LCORR"> T  </i>
  </separator>
  <i type="logical" name="GGA_COMPAT"> T  </i>
  <i type="logical" name="LBERRY"> F  </i>
  <i type="int" name="ICORELEVEL">     0</i>
  <i type="logical" name="LDAU"> F  </i>
  <i type="int" name="I_CONSTRAINED_M">     0</i>
  <separator name="electronic exchange-correlation" >
   <i type="string" name="GGA">--</i>
   <i type="int" name="VOSKOWN">     0</i>
   <i type="logical" name="LHFCALC"> F  </i>
   <i type="string" name="PRECFOCK"></i>
   <i type="logical" name="LSYMGRAD"> F  </i>
   <i type="logical" name="LHFONE"> F  </i>
   <i type="logical" name="LRHFCALC"> F  </i>
   <i type="logical" name="LTHOMAS"> F  </i>
   <i type="logical" name="LMODELHF"> F  </i>
   <i name="ENCUT4O">     -1.00000000</i>
   <i type="int" name="EXXOEP">     0</i>
   <i type="int" name="FOURORBIT">     0</i>
   <i name="AEXX">      0.00000000</i>
   <i name="HFALPHA">      0.00000000</i>
   <i name="MCALPHA">      0.00000000</i>
   <i name="ALDAX">      1.00000000</i>
   <i name="AGGAX">      1.00000000</i>
   <i name="ALDAC">      1.00000000</i>
   <i name="AGGAC">      1.00000000</i>
   <i type="int" name="NKREDX">     1</i>
   <i type="int" name="NKREDY">     1</i>
   <i type="int" name="NKREDZ">     1</i>
   <i type="logical" name="SHIFTRED"> F  </i>
   <i type="logical" name="ODDONLY"> F  </i>
   <i type="logical" name="EVENONLY"> F  </i>
   <i type="int" name="LMAXFOCK">     0</i>
   <i type="int" name="NMAXFOCKAE">     0</i>
   <i type="logical" name="LFOCKAEDFT"> F  </i>
   <i name="HFSCREEN">      0.00000000</i>
   <i name="HFSCREENC">      0.00000000</i>
   <i type="int" name="NBANDSGWLOW">     0</i>
  </separator>
  <separator name="vdW DFT" >
   <i type="logical" name="LUSE_VDW"> F  </i>
   <i name="Zab_VDW">     -0.84910000</i>
   <i name="PARAM1">      0.12340000</i>
   <i name="PARAM2">      1.00000000</i>
   <i name="PARAM3">      0.00000000</i>
  </separator>
  <separator name="model GW" >
   <i type="int" name="MODEL_GW">     0</i>
   <i name="MODEL_EPS0">     12.24990743</i>
   <i name="MODEL_ALPHA">      1.00000000</i>
  </separator>
  <separator name="linear response parameters" >
   <i type="logical" name="LEPSILON"> F  </i>
   <i type="logical" name="LRPA"> F  </i>
   <i type="logical" name="LNABLA"> F  </i>
   <i type="logical" name="LVEL"> F  </i>
   <i type="int" name="KINTER">     0</i>
   <i name="CSHIFT">      0.10000000</i>
   <i name="OMEGAMAX">     -1.00000000</i>
   <i name="DEG_THRESHOLD">      0.00200000</i>
  </separator>
  <separator name="orbital magnetization" >
   <i type="logical" name="NUCIND"> F  </i>
   <v name="MAGPOS">      0.00000000      0.00000000      0.00000000</v>
   <i type="logical" name="LNICSALL"> T  </i>
   <i type="logical" name="ORBITALMAG"> F  </i>
   <i type="logical" name="LMAGBLOCH"> F  </i>
   <i type="logical" name="LCHIMAG"> F  </i>
   <i type="logical" name="LGAUGE"> T  </i>
   <i type="int" name="MAGATOM">     0</i>
   <v name="MAGDIPOL">      0.00000000      0.00000000      0.00000000</v>
   <v name="AVECCONST">      0.00000000      0.00000000      0.00000000</v>
  </separator>
  <separator name="response functions" >
   <i type="logical" name="LADDER"> F  </i>
   <i type="logical" name="LFXC"> F  </i>
   <i type="logical" name="LHARTREE"> T  </i>
   <i type="int" name="IBSE">     0</i>
   <v type="int" name="KPOINT">    -1     0     0     0</v>
   <i type="logical" name="LTCTE"> F  </i>
   <i type="logical" name="LTETE"> F  </i>
   <i type="logical" name="LTRIPLET"> F  </i>
   <i type="logical" name="LFXCEPS"> F  </i>
   <i type="logical" name="LFXHEG"> F  </i>
   <i type="int" name="NATURALO">     0</i>
   <i type="logical" name="L2ORDER"> F  </i>
   <i type="logical" name="LUSEW"> F  </i>
   <i name="ENCUTGW">     -2.00000000</i>
   <i name="ENCUTGWSOFT">     -2.00000000</i>
   <i name="ENCUTLF">     -1.00000000</i>
   <i type="int" name="LMAXMP2">    -1</i>
   <i name="SCISSOR">      0.00000000</i>
   <i type="int" name="NOMEGA">     0</i>
   <i type="int" name="NOMEGAR">     0</i>
   <i type="int" name="NBANDSGW">    -1</i>
   <i type="int" name="NBANDSO">    -1</i>
   <i type="int" name="NBANDSV">    -1</i>
   <i type="int" name="NELM">     1</i>
   <i type="int" name="NELMHF">     1</i>
   <i type="int" name="DIM">     3</i>
   <i type="int" name="ANTIRES">     0</i>
   <i name="OMEGAMAX">    -30.00000000</i>
   <i name="OMEGAMIN">    -30.00000000</i>
   <i name="OMEGATL">   -200.00000000</i>
   <i type="int" name="OMEGAGRID">     0</i>
   <i name="CSHIFT">     -0.10000000</i>
   <i type="logical" name="SELFENERGY"> F  </i>
   <i type="logical" name="LSPECTRAL"> F  </i>
   <i type="logical" name="LSPECTRALGW"> F  </i>
   <i type="logical" name="LSINGLES"> F  </i>
   <i type="logical" name="LFERMIGW"> F  </i>
   <i type="logical" name="ODDONLYGW"> F  </i>
   <i type="logical" name="EVENONLYGW"> F  </i>
   <i type="int" name="NKREDLFX">     1</i>
   <i type="int" name="NKREDLFY">     1</i>
   <i type="int" name="NKREDLFZ">     1</i>
   <i type="int" name="MAXMEM">  1800</i>
   <i type="int" name="TELESCOPE">     0</i>
   <i type="int" name="TAUPAR">     1</i>
   <i type="int" name="OMEGAPAR">    -1</i>
   <i name="LAMBDA">      1.00000000</i>
  </separator>
  <separator name="External order field" >
   <i name="OFIELD_KAPPA">      0.00000000</i>
   <v name="OFIELD_K">      0.00000000      0.00000000      0.00000000</v>
   <i name="OFIELD_Q6_NEAR">      0.00000000</i>
   <i name="OFIELD_Q6_FAR">      0.00000000</i>
   <i name="OFIELD_A">      0.00000000</i>
  </separator>
 </parameters>
 <atominfo>
  <atoms>      64 </atoms>
  <types>       1 </types>
  <array name="atoms" >
   <dimension dim="1">ion</dimension>
   <field type="string">element</field>
   <field type="int">atomtype</field>
   <set>
    <rc><c>Si</c><c>   1</c></rc>
    <rc><c>Si</c><c>   1</c></rc>
    <rc><c>Si</c><c>   1</c></rc>
    <rc><c>Si</c><c>   1</c></rc>
    <rc><c>Si</c><c>   1</c></rc>
    <rc><c>Si</c><c>   1</c></rc>
    <rc><c>Si</c><c>   1</c></rc>
    <rc><c>Si</c><c>   1</c></rc>
    <rc><c>Si</c><c>   1</c></rc>
    <rc><c>Si</c><c>   1</c></rc>
    <rc><c>Si</c><c>   1</c></rc>
    <rc><c>Si</c><c>   1</c></rc>
    <rc><c>Si</c><c>   1</c></rc>
    <rc><c>Si</c><c>   1</c></rc>
    <rc><c>Si</c><c>   1</c></rc>
    <rc><c>Si</c><c>   1</c></rc>
    <rc><c>Si</c><c>   1</c></rc>
    <rc><c>Si</c><c>   1</c></rc>
    <rc><c>Si</c><c>   1</c></rc>
    <rc><c>Si</c><c>   1</c></rc>
    <rc><c>Si</c><c>   1</c></rc>
    <rc><c>Si</c><c>   1</c></rc>
    <rc><c>Si</c><c>   1</c></rc>
    <rc><c>Si</c><c>   1</c></rc>
    <rc><c>Si</c><c>   1</c></rc>
    <rc><c>Si</c><c>   1</c></rc>
    <rc><c>Si</c><c>   1</c></rc>
    <rc><c>Si</c><c>   1</c></rc>
    <rc><c>Si</c><c>   1</c></rc>
    <rc><c>Si</c><c>   1</c></rc>
    <rc><c>Si</c><c>   1</c></rc>
    <rc><c>Si</c><c>   1</c></rc>
    <rc><c>Si</c><c>   1</c></rc>
    <rc><c>Si</c><c>   1</c></rc>
    <rc><c>Si</c><c>   1</c></rc>
    <rc><c>Si</c><c>   1</c></rc>
    <rc><c>Si</c><c>   1</c></rc>
    <rc><c>Si</c><c>   1</c></rc>
    <rc><c>Si</c><c>   1</c></rc>
    <rc><c>Si</c><c>   1</c></rc>
    <rc><c>Si</c><c>   1</c></rc>
    <rc><c>Si</c><c>   1</c></rc>
    <rc><c>Si</c><c>   1</c></rc>
    <rc><c>Si</c><c>   1</c></rc>
    <rc><c>Si</c><c>   1</c></rc>
    <rc><c>Si</c><c>   1</c></rc>
    <rc><c>Si</c><c>   1</c></rc>
    <rc><c>Si</c><c>   1</c></rc>
    <rc><c>Si</c><c>   1</c></rc>
    <rc><c>Si</c><c>   1</c></rc>
    <rc><c>Si</c><c>   1</c></rc>
    <rc><c>Si</c><c>   1</c></rc>
    <rc><c>Si</c><c>   1</c></rc>
    <rc><c>Si</c><c>   1</c></rc>
    <rc><c>Si</c><c>   1</c></rc>
    <rc><c>Si</c><c>   1</c></rc>
    <rc><c>Si</c><c>   1</c></rc>
    <rc><c>Si</c><c>   1</c></rc>
    <rc><c>Si</c><c>   1</c></rc>
    <rc><c>Si</c><c>   1</c></rc>
    <rc><c>Si</c><c>   1</c></rc>
    <rc><c>Si</c><c>   1</c></rc>
    <rc><c>Si</c><c>   1</c></rc>
    <rc><c>Si</c><c>   1</c></rc>
   </set>
  </array>
  <array name="atomtypes" >
   <dimension dim="1">type</dimension>
   <field type="int">atomspertype</field>
   <field type="string">element</field>
   <field>mass</field>
   <field>valence</field>
   <field type="string">pseudopotential</field>
   <set>
    <rc><c>  64</c><c>Si</c><c>     28.08500000</c><c>      4.00000000</c><c>  PAW_PBE Si 05Jan2001                  </c></rc>
   </set>
  </array>
 </atominfo>
 <structure name="initialpos" >
  <crystal>
   <varray name="basis" >
    <v>      10.93252578       0.00000000       0.00000000 </v>
    <v>       0.00000000      10.93252578       0.00000000 </v>
    <v>       0.00000000       0.00000000      10.93252578 </v>
   </varray>
   <i name="volume">   1306.65679237 </i>
   <varray name="rec_basis" >
    <v>       0.09147017       0.00000000       0.00000000 </v>
    <v>       0.00000000       0.09147017       0.00000000 </v>
    <v>       0.00000000       0.00000000       0.09147017 </v>
   </varray>
  </crystal>
  <varray name="positions" >
   <v>       0.44024411       0.43750000       0.43750000 </v>
   <v>       0.93750000       0.43750000       0.43750000 </v>
   <v>       0.43750000       0.93750000       0.43750000 </v>
   <v>       0.93750000       0.93750000       0.43750000 </v>
   <v>       0.43750000       0.43750000       0.93750000 </v>
   <v>       0.93750000       0.43750000       0.93750000 </v>
   <v>       0.43750000       0.93750000       0.93750000 </v>
   <v>       0.93750000       0.93750000       0.93750000 </v>
   <v>       0.43750000       0.18750000       0.18750000 </v>
   <v>       0.93750000       0.18750000       0.18750000 </v>
   <v>       0.44024411       0.68750000       0.18750000 </v>
   <v>       0.93750000       0.68750000       0.18750000 </v>
   <v>       0.43750000       0.18750000       0.68750000 </v>
   <v>       0.93750000       0.18750000       0.68750000 </v>
   <v>       0.43750000       0.68750000       0.68750000 </v>
   <v>       0.93750000       0.68750000       0.68750000 </v>
   <v>       0.18750000       0.43750000       0.18750000 </v>
   <v>       0.68750000       0.43750000       0.18750000 </v>
   <v>       0.18750000       0.93750000       0.18750000 </v>
   <v>       0.68750000       0.93750000       0.18750000 </v>
   <v>       0.18750000       0.43750000       0.68750000 </v>
   <v>       0.68750000       0.43750000       0.68750000 </v>
   <v>       0.18750000       0.93750000       0.68750000 </v>
   <v>       0.68750000       0.93750000       0.68750000 </v>
   <v>       0.18750000       0.18750000       0.43750000 </v>
   <v>       0.68750000       0.18750000       0.43750000 </v>
   <v>       0.18750000       0.68750000       0.43750000 </v>
   <v>       0.68750000       0.68750000       0.43750000 </v>
   <v>       0.18750000       0.18750000       0.93750000 </v>
   <v>       0.68750000       0.18750000       0.93750000 </v>
   <v>       0.18750000       0.68750000       0.93750000 </v>
   <v>       0.68750000       0.68750000       0.93750000 </v>
   <v>       0.06250000       0.06250000       0.06250000 </v>
   <v>       0.56250000       0.06250000       0.06250000 </v>
   <v>       0.06250000       0.56250000       0.06250000 </v>
   <v>       0.56250000       0.56250000       0.06250000 </v>
   <v>       0.06250000       0.06250000       0.56250000 </v>
   <v>       0.56250000       0.06250000       0.56250000 </v>
   <v>       0.06250000       0.56250000       0.56250000 </v>
   <v>       0.56250000       0.56250000       0.56250000 </v>
   <v>       0.06250000       0.31250000       0.31250000 </v>
   <v>       0.56250000       0.31250000       0.31250000 </v>
   <v>       0.06250000       0.81250000       0.31250000 </v>
   <v>       0.56250000       0.81250000       0.31250000 </v>
   <v>       0.06250000       0.31250000       0.81250000 </v>
   <v>       0.56250000       0.31250000       0.81250000 </v>
   <v>       0.06250000       0.81250000       0.81250000 </v>
   <v>       0.56250000       0.81250000       0.81250000 </v>
   <v>       0.31250000       0.06250000       0.31250000 </v>
   <v>       0.81250000       0.06250000       0.31250000 </v>
   <v>       0.31250000       0.56250000       0.31250000 </v>
   <v>       0.81250000       0.56250000       0.31250000 </v>
   <v>       0.31250000       0.06250000       0.81250000 </v>
   <v>       0.81250000       0.06250000       0.81250000 </v>
   <v>       0.31250000       0.56250000       0.81250000 </v>
   <v>       0.81250000       0.56250000       0.81250000 </v>
   <v>       0.31250000       0.31250000       0.06250000 </v>
   <v>       0.81250000       0.31250000       0.06250000 </v>
   <v>       0.31250000       0.81250000       0.06250000 </v>
   <v>       0.81250000       0.81250000       0.06250000 </v>
   <v>       0.31250000       0.31250000       0.56250000 </v>
   <v>       0.81250000       0.31250000       0.56250000 </v>
   <v>       0.31250000       0.81250000       0.56250000 </v>
   <v>       0.81250000       0.81250000       0.56250000 </v>
  </varray>
 </structure>
 <calculation>
  <scstep>
   <time name="dav">    2.76    2.76</time>
   <time name="total">    3.02    3.05</time>
   <energy>
    <i name="alphaZ">    105.52440745 </i>
    <i name="ewald">  -7265.46798977 </i>
    <i name="hartreedc">   -361.71557817 </i>
    <i name="XCdc">   -597.75713223 </i>
    <i name="pawpsdc">   5639.92317535 </i>
    <i name="pawaedc">  -4513.95313856 </i>
    <i name="eentropy">     -0.00672265 </i>
    <i name="bandstr">    861.09290265 </i>
    <i name="atom">   6596.14994790 </i>
    <i name="e_fr_energy">    463.78987198 </i>
    <i name="e_wo_entrp">    463.79659463 </i>
    <i name="e_0_energy">    463.79323330 </i>
   </energy>
  </scstep>
  <scstep>
   <time name="dav">    3.13    3.13</time>
   <time name="total">    3.13    3.15</time>
   <energy>
    <i name="e_fr_energy">   -298.07490939 </i>
    <i name="e_wo_entrp">   -298.07490939 </i>
    <i name="e_0_energy">   -298.07490939 </i>
   </energy>
  </scstep>
  <scstep>
   <time name="dav">    3.21    3.22</time>
   <time name="total">    3.21    3.22</time>
   <energy>
    <i name="e_fr_energy">   -350.93434870 </i>
    <i name="e_wo_entrp">   -350.93434870 </i>
    <i name="e_0_energy">   -350.93434870 </i>
   </energy>
  </scstep>
  <scstep>
   <time name="dav">    3.18    3.19</time>
   <time name="total">    3.18    3.19</time>
   <energy>
    <i name="e_fr_energy">   -352.26601379 </i>
    <i name="e_wo_entrp">   -352.26601379 </i>
    <i name="e_0_energy">   -352.26601379 </i>
   </energy>
  </scstep>
  <scstep>
   <time name="dav">    3.18    3.18</time>
   <time name="total">    3.44    3.45</time>
   <energy>
    <i name="e_fr_energy">   -352.31245450 </i>
    <i name="e_wo_entrp">   -352.31245450 </i>
    <i name="e_0_energy">   -352.31245450 </i>
   </energy>
  </scstep>
  <scstep>
   <time name="dav">    3.08    3.08</time>
   <time name="total">    3.60    3.61</time>
   <energy>
    <i name="e_fr_energy">   -348.58441461 </i>
    <i name="e_wo_entrp">   -348.58441461 </i>
    <i name="e_0_energy">   -348.58441461 </i>
   </energy>
  </scstep>
  <scstep>
   <time name="dav">    2.99    3.00</time>
   <time name="total">    3.51    3.53</time>
   <energy>
    <i name="e_fr_energy">   -346.87165340 </i>
    <i name="e_wo_entrp">   -346.87165340 </i>
    <i name="e_0_energy">   -346.87165340 </i>
   </energy>
  </scstep>
  <scstep>
   <time name="dav">    3.13    3.13</time>
   <time name="total">    3.65    3.66</time>
   <energy>
    <i name="e_fr_energy">   -346.89780208 </i>
    <i name="e_wo_entrp">   -346.89780208 </i>
    <i name="e_0_energy">   -346.89780208 </i>
   </energy>
  </scstep>
  <scstep>
   <time name="dav">    3.23    3.23</time>
   <time name="total">    3.77    3.78</time>
   <energy>
    <i name="e_fr_energy">   -346.90448922 </i>
    <i name="e_wo_entrp">   -346.90448922 </i>
    <i name="e_0_energy">   -346.90448922 </i>
   </energy>
  </scstep>
  <scstep>
   <time name="dav">    2.98    2.98</time>
   <time name="total">    3.51    3.51</time>
   <energy>
    <i name="e_fr_energy">   -346.90654099 </i>
    <i name="e_wo_entrp">   -346.90654099 </i>
    <i name="e_0_energy">   -346.90654099 </i>
   </energy>
  </scstep>
  <scstep>
   <time name="dav">    3.18    3.18</time>
   <time name="total">    3.70    3.71</time>
   <energy>
    <i name="e_fr_energy">   -346.90651613 </i>
    <i name="e_wo_entrp">   -346.90651613 </i>
    <i name="e_0_energy">   -346.90651613 </i>
   </energy>
  </scstep>
  <scstep>
   <time name="dav">    3.17    3.17</time>
   <time name="total">    3.69    3.70</time>
   <energy>
    <i name="e_fr_energy">   -346.90653084 </i>
    <i name="e_wo_entrp">   -346.90653084 </i>
    <i name="e_0_energy">   -346.90653084 </i>
   </energy>
  </scstep>
  <scstep>
   <time name="dav">    3.09    3.09</time>
   <time name="total">    3.62    3.63</time>
   <energy>
    <i name="e_fr_energy">   -346.90653148 </i>
    <i name="e_wo_entrp">   -346.90653148 </i>
    <i name="e_0_energy">   -346.90653148 </i>
   </energy>
  </scstep>
  <scstep>
   <time name="dav">    3.14    3.15</time>
   <time name="total">    3.66    3.68</time>
   <energy>
    <i name="e_fr_energy">   -346.90653208 </i>
    <i name="e_wo_entrp">   -346.90653208 </i>
    <i name="e_0_energy">   -346.90653208 </i>
   </energy>
  </scstep>
  <scstep>
   <time name="dav">    2.76    2.76</time>
   <time name="total">    3.29    3.30</time>
   <energy>
    <i name="e_fr_energy">   -346.90653183 </i>
    <i name="e_wo_entrp">   -346.90653183 </i>
    <i name="e_0_energy">   -346.90653183 </i>
   </energy>
  </scstep>
  <scstep>
   <time name="dav">    2.18    2.19</time>
   <time name="total">    2.71    2.72</time>
   <energy>
    <i name="e_fr_energy">   -346.90653191 </i>
    <i name="e_wo_entrp">   -346.90653191 </i>
    <i name="e_0_energy">   -346.90653191 </i>
   </energy>
  </scstep>
  <scstep>
   <time name="dav">    2.14    2.14</time>
   <time name="total">    2.66    2.70</time>
   <energy>
    <i name="e_fr_energy">   -346.90653189 </i>
    <i name="e_wo_entrp">   -346.90653189 </i>
    <i name="e_0_energy">   -346.90653189 </i>
   </energy>
  </scstep>
  <scstep>
   <time name="dav">    2.14    2.14</time>
   <time name="total">    2.66    2.83</time>
   <energy>
    <i name="e_fr_energy">   -346.90653190 </i>
    <i name="e_wo_entrp">   -346.90653190 </i>
    <i name="e_0_energy">   -346.90653190 </i>
   </energy>
  </scstep>
  <scstep>
   <time name="dav">    2.13    2.14</time>
   <time name="total">    2.40    2.41</time>
   <energy>
    <i name="alphaZ">    105.52440745 </i>
    <i name="ewald">  -7265.46798977 </i>
    <i name="hartreedc">   -485.14589436 </i>
    <i name="XCdc">   -577.61231157 </i>
    <i name="pawpsdc">  27883.45618295 </i>
    <i name="pawaedc"> -26764.17410877 </i>
    <i name="eentropy">      0.00000000 </i>
    <i name="bandstr">    160.36323426 </i>
    <i name="atom">   6596.14994790 </i>
    <i name="e_fr_energy">   -346.90653191 </i>
    <i name="e_wo_entrp">   -346.90653191 </i>
    <i name="e_0_energy">   -346.90653191 </i>
   </energy>
  </scstep>
  <structure>
   <crystal>
    <varray name="basis" >
     <v>      10.93252578       0.00000000       0.00000000 </v>
     <v>       0.00000000      10.93252578       0.00000000 </v>
     <v>       0.00000000       0.00000000      10.93252578 </v>
    </varray>
    <i name="volume">   1306.65679237 </i>
    <varray name="rec_basis" >
     <v>       0.09147017       0.00000000       0.00000000 </v>
     <v>       0.00000000       0.09147017       0.00000000 </v>
     <v>       0.00000000       0.00000000       0.09147017 </v>
    </varray>
   </crystal>
   <varray name="positions" >
    <v>       0.44024411       0.43750000       0.43750000 </v>
    <v>       0.93750000       0.43750000       0.43750000 </v>
    <v>       0.43750000       0.93750000       0.43750000 </v>
    <v>       0.93750000       0.93750000       0.43750000 </v>
    <v>       0.43750000       0.43750000       0.93750000 </v>
    <v>       0.93750000       0.43750000       0.93750000 </v>
    <v>       0.43750000       0.93750000       0.93750000 </v>
    <v>       0.93750000       0.93750000       0.93750000 </v>
    <v>       0.43750000       0.18750000       0.18750000 </v>
    <v>       0.93750000       0.18750000       0.18750000 </v>
    <v>       0.44024411       0.68750000       0.18750000 </v>
    <v>       0.93750000       0.68750000       0.18750000 </v>
    <v>       0.43750000       0.18750000       0.68750000 </v>
    <v>       0.93750000       0.18750000       0.68750000 </v>
    <v>       0.43750000       0.68750000       0.68750000 </v>
    <v>       0.93750000       0.68750000       0.68750000 </v>
    <v>       0.18750000       0.43750000       0.18750000 </v>
    <v>       0.68750000       0.43750000       0.18750000 </v>
    <v>       0.18750000       0.93750000       0.18750000 </v>
    <v>       0.68750000       0.93750000       0.18750000 </v>
    <v>       0.18750000       0.43750000       0.68750000 </v>
    <v>       0.68750000       0.43750000       0.68750000 </v>
    <v>       0.18750000       0.93750000       0.68750000 </v>
    <v>       0.68750000       0.93750000       0.68750000 </v>
    <v>       0.18750000       0.18750000       0.43750000 </v>
    <v>       0.68750000       0.18750000       0.43750000 </v>
    <v>       0.18750000       0.68750000       0.43750000 </v>
    <v>       0.68750000       0.68750000       0.43750000 </v>
    <v>       0.18750000       0.18750000       0.93750000 </v>
    <v>       0.68750000       0.18750000       0.93750000 </v>
    <v>       0.18750000       0.68750000       0.93750000 </v>
    <v>       0.68750000       0.68750000       0.93750000 </v>
    <v>       0.06250000       0.06250000       0.06250000 </v>
    <v>       0.56250000       0.06250000       0.06250000 </v>
    <v>       0.06250000       0.56250000       0.06250000 </v>
    <v>       0.56250000       0.56250000       0.06250000 </v>
    <v>       0.06250000       0.06250000       0.56250000 </v>
    <v>       0.56250000       0.06250000       0.56250000 </v>
    <v>       0.06250000       0.56250000       0.56250000 </v>
    <v>       0.56250000       0.56250000       0.56250000 </v>
    <v>       0.06250000       0.31250000       0.31250000 </v>
    <v>       0.56250000       0.31250000       0.31250000 </v>
    <v>       0.06250000       0.81250000       0.31250000 </v>
    <v>       0.56250000       0.81250000       0.31250000 </v>
    <v>       0.06250000       0.31250000       0.81250000 </v>
    <v>       0.56250000       0.31250000       0.81250000 </v>
    <v>       0.06250000       0.81250000       0.81250000 </v>
    <v>       0.56250000       0.81250000       0.81250000 </v>
    <v>       0.31250000       0.06250000       0.31250000 </v>
    <v>       0.81250000       0.06250000       0.31250000 </v>
    <v>       0.31250000       0.56250000       0.31250000 </v>
    <v>       0.81250000       0.56250000       0.31250000 </v>
    <v>       0.31250000       0.06250000       0.81250000 </v>
    <v>       0.81250000       0.06250000       0.81250000 </v>
    <v>       0.31250000       0.56250000       0.81250000 </v>
    <v>       0.81250000       0.56250000       0.81250000 </v>
    <v>       0.31250000       0.31250000       0.06250000 </v>
    <v>       0.81250000       0.31250000       0.06250000 </v>
    <v>       0.31250000       0.81250000       0.06250000 </v>
    <v>       0.81250000       0.81250000       0.06250000 </v>
    <v>       0.31250000       0.31250000       0.56250000 </v>
    <v>       0.81250000       0.31250000       0.56250000 </v>
    <v>       0.31250000       0.81250000       0.56250000 </v>
    <v>       0.81250000       0.81250000       0.56250000 </v>
   </varray>
  </structure>
  <varray name="forces" >
   <v>      -0.39979738      -0.00266998       0.00266998 </v>
   <v>       0.00054668      -0.00023389       0.00023389 </v>
   <v>      -0.01156379      -0.00277808      -0.00277376 </v>
   <v>      -0.00019760      -0.00022436      -0.00022900 </v>
   <v>      -0.01156379       0.00277376       0.00277808 </v>
   <v>      -0.00019760       0.00022900       0.00022436 </v>
   <v>      -0.02432674       0.00266622      -0.00266622 </v>
   <v>       0.00057212       0.00023334      -0.00023334 </v>
   <v>      -0.01156379       0.00277808       0.00277376 </v>
   <v>      -0.00019760       0.00022436       0.00022900 </v>
   <v>      -0.39979738       0.00266998      -0.00266998 </v>
   <v>       0.00054668       0.00023389      -0.00023389 </v>
   <v>      -0.02432674      -0.00266622       0.00266622 </v>
   <v>       0.00057212      -0.00023334       0.00023334 </v>
   <v>      -0.01156379      -0.00277376      -0.00277808 </v>
   <v>      -0.00019760      -0.00022900      -0.00022436 </v>
   <v>       0.01127240       0.00286829       0.00286829 </v>
   <v>       0.01161021      -0.00845484      -0.00845484 </v>
   <v>       0.00666761      -0.00578990       0.00080971 </v>
   <v>       0.00683011       0.00546767       0.00463325 </v>
   <v>       0.00666761       0.00080971      -0.00578990 </v>
   <v>       0.00683011       0.00463325       0.00546767 </v>
   <v>       0.00203115       0.00209428       0.00209428 </v>
   <v>       0.00203957      -0.00161243      -0.00161243 </v>
   <v>       0.00666761       0.00578990      -0.00080971 </v>
   <v>       0.00683011      -0.00546767      -0.00463325 </v>
   <v>       0.01127240      -0.00286829      -0.00286829 </v>
   <v>       0.01161021       0.00845484       0.00845484 </v>
   <v>       0.00203115      -0.00209428      -0.00209428 </v>
   <v>       0.00203957       0.00161243       0.00161243 </v>
   <v>       0.00666761      -0.00080971       0.00578990 </v>
   <v>       0.00683011      -0.00463325      -0.00546767 </v>
   <v>       0.00008607       0.00015336       0.00009973 </v>
   <v>       0.00473662      -0.00024406      -0.00051937 </v>
   <v>       0.00033903      -0.00025057      -0.00030671 </v>
   <v>       0.09431994      -0.06486897      -0.06519115 </v>
   <v>       0.00008607      -0.00015336      -0.00009973 </v>
   <v>       0.00473662       0.00024406       0.00051937 </v>
   <v>       0.00033903       0.00025057       0.00030671 </v>
   <v>       0.09431994       0.06486897       0.06519115 </v>
   <v>       0.00033903      -0.00030671      -0.00025057 </v>
   <v>       0.09431994      -0.06519115      -0.06486897 </v>
   <v>       0.00033903       0.00030671       0.00025057 </v>
   <v>       0.09431994       0.06519115       0.06486897 </v>
   <v>       0.00008607       0.00009973       0.00015336 </v>
   <v>       0.00473662      -0.00051937      -0.00024406 </v>
   <v>       0.00008607      -0.00009973      -0.00015336 </v>
   <v>       0.00473662       0.00051937       0.00024406 </v>
   <v>      -0.00286378       0.00000000       0.00000000 </v>
   <v>       0.00132392       0.00000000       0.00000000 </v>
   <v>       0.18602082       0.00000000       0.00000000 </v>
   <v>      -0.00055796       0.00000000       0.00000000 </v>
   <v>       0.01227031       0.00000000       0.00000000 </v>
   <v>      -0.00107071       0.00000000       0.00000000 </v>
   <v>      -0.00286378       0.00000000       0.00000000 </v>
   <v>       0.00132392       0.00000000       0.00000000 </v>
   <v>      -0.00285543       0.00035634       0.00035634 </v>
   <v>       0.00132541       0.00007046       0.00007046 </v>
   <v>       0.09917110      -0.06029756       0.06029756 </v>
   <v>      -0.00081646      -0.00015789       0.00015789 </v>
   <v>       0.09917110       0.06029756      -0.06029756 </v>
   <v>      -0.00081646       0.00015789      -0.00015789 </v>
   <v>      -0.00285543      -0.00035634      -0.00035634 </v>
   <v>       0.00132541      -0.00007046      -0.00007046 </v>
  </varray>
  <varray name="stress" >
   <v>      -0.01802133       0.00000000       0.00000000 </v>
   <v>       0.00000000       0.02097255       0.66936762 </v>
   <v>       0.00000000       0.66936762       0.02097255 </v>
  </varray>
  <energy>
   <i name="e_fr_energy">   -346.90653191 </i>
   <i name="e_wo_entrp">   -346.90653191 </i>
   <i name="e_0_energy">      0.00000000 </i>
  </energy>
  <time name="totalsc">   70.34   70.77</time>
  <eigenvalues>
   <array>
    <dimension dim="1">band</dimension>
    <dimension dim="2">kpoint</dimension>
    <dimension dim="3">spin</dimension>
    <field>eigene</field>
    <field>occ</field>
    <set>
     <set comment="spin 1">
      <set comment="kpoint 1">
       <r>   -5.9931    1.0000 </r>
       <r>   -5.4679    1.0000 </r>
       <r>   -5.4650    1.0000 </r>
       <r>   -5.4618    1.0000 </r>
       <r>   -4.9682    1.0000 </r>
       <r>   -4.9658    1.0000 </r>
       <r>   -4.9625    1.0000 </r>
       <r>   -4.5314    1.0000 </r>
       <r>   -4.4353    1.0000 </r>
       <r>   -4.4321    1.0000 </r>
       <r>   -4.4288    1.0000 </r>
       <r>   -4.0267    1.0000 </r>
       <r>   -4.0209    1.0000 </r>
       <r>   -4.0165    1.0000 </r>
       <r>   -4.0147    1.0000 </r>
       <r>   -4.0117    1.0000 </r>
       <r>   -4.0111    1.0000 </r>
       <r>   -3.8307    1.0000 </r>
       <r>   -3.8225    1.0000 </r>
       <r>   -3.8216    1.0000 </r>
       <r>   -3.3301    1.0000 </r>
       <r>   -3.3270    1.0000 </r>
       <r>   -3.3226    1.0000 </r>
       <r>   -2.9639    1.0000 </r>
       <r>   -2.9583    1.0000 </r>
       <r>   -2.9565    1.0000 </r>
       <r>   -2.8001    1.0000 </r>
       <r>   -2.7948    1.0000 </r>
       <r>   -2.7913    1.0000 </r>
       <r>   -2.7890    1.0000 </r>
       <r>   -2.7860    1.0000 </r>
       <r>   -2.7852    1.0000 </r>
       <r>   -1.2551    1.0000 </r>
       <r>   -1.2536    1.0000 </r>
       <r>   -1.2487    1.0000 </r>
       <r>   -1.2470    1.0000 </r>
       <r>   -1.2436    1.0000 </r>
       <r>   -1.2427    1.0000 </r>
       <r>   -1.1518    1.0000 </r>
       <r>   -1.1518    1.0000 </r>
       <r>   -1.1474    1.0000 </r>
       <r>   -1.0370    1.0000 </r>
       <r>   -1.0310    1.0000 </r>
       <r>   -1.0247    1.0000 </r>
       <r>   -0.9559    1.0000 </r>
       <r>   -0.9500    1.0000 </r>
       <r>   -0.9465    1.0000 </r>
       <r>   -0.2481    1.0000 </r>
       <r>   -0.1647    1.0000 </r>
       <r>   -0.1640    1.0000 </r>
       <r>   -0.1599    1.0000 </r>
       <r>   -0.1582    1.0000 </r>
       <r>   -0.1544    1.0000 </r>
       <r>   -0.1509    1.0000 </r>
       <r>    0.7100    1.0000 </r>
       <r>    0.7111    1.0000 </r>
       <r>    0.7148    1.0000 </r>
       <r>    1.0420    1.0000 </r>
       <r>    1.0494    1.0000 </r>
       <r>    1.0499    1.0000 </r>
       <r>    1.6515    1.0000 </r>
       <r>    1.6558    1.0000 </r>
       <r>    1.6569    1.0000 </r>
       <r>    1.6569    1.0000 </r>
       <r>    1.6599    1.0000 </r>
       <r>    1.6609    1.0000 </r>
       <r>    1.7139    1.0000 </r>
       <r>    1.7185    1.0000 </r>
       <r>    1.7194    1.0000 </r>
       <r>    2.2643    1.0000 </r>
       <r>    2.2657    1.0000 </r>
       <r>    2.2676    1.0000 </r>
       <r>    2.3671    1.0000 </r>
       <r>    2.3678    1.0000 </r>
       <r>    2.3701    1.0000 </r>
       <r>    2.3723    1.0000 </r>
       <r>    2.3766    1.0000 </r>
       <r>    2.3776    1.0000 </r>
       <r>    2.4226    1.0000 </r>
       <r>    2.4296    1.0000 </r>
       <r>    2.4303    1.0000 </r>
       <r>    2.7302    1.0000 </r>
       <r>    2.7310    1.0000 </r>
       <r>    2.7344    1.0000 </r>
       <r>    2.7354    1.0000 </r>
       <r>    2.7373    1.0000 </r>
       <r>    2.7406    1.0000 </r>
       <r>    2.9982    1.0000 </r>
       <r>    3.0009    1.0000 </r>
       <r>    3.0021    1.0000 </r>
       <r>    3.0094    1.0000 </r>
       <r>    3.0173    1.0000 </r>
       <r>    3.0174    1.0000 </r>
       <r>    3.3581    1.0000 </r>
       <r>    3.3591    1.0000 </r>
       <r>    3.3624    1.0000 </r>
       <r>    3.3769    1.0000 </r>
       <r>    3.3826    1.0000 </r>
       <r>    3.3851    1.0000 </r>
       <r>    3.4659    1.0000 </r>
       <r>    3.4665    1.0000 </r>
       <r>    3.4707    1.0000 </r>
       <r>    3.7282    1.0000 </r>
       <r>    3.7385    1.0000 </r>
       <r>    3.7395    1.0000 </r>
       <r>    3.7406    1.0000 </r>
       <r>    3.7420    1.0000 </r>
       <r>    3.7432    1.0000 </r>
       <r>    3.7800    1.0000 </r>
       <r>    3.7806    1.0000 </r>
       <r>    3.7856    1.0000 </r>
       <r>    4.0367    1.0000 </r>
       <r>    4.0977    1.0000 </r>
       <r>    4.1002    1.0000 </r>
       <r>    4.1025    1.0000 </r>
       <r>    4.3405    1.0000 </r>
       <r>    4.3414    1.0000 </r>
       <r>    4.3468    1.0000 </r>
       <r>    4.3982    1.0000 </r>
       <r>    4.4009    1.0000 </r>
       <r>    4.4048    1.0000 </r>
       <r>    4.5593    1.0000 </r>
       <r>    4.5688    1.0000 </r>
       <r>    4.8694    1.0000 </r>
       <r>    4.8707    1.0000 </r>
       <r>    4.8781    1.0000 </r>
       <r>    5.3466    1.0000 </r>
       <r>    5.3577    1.0000 </r>
       <r>    6.5599    0.0000 </r>
       <r>    6.5673    0.0000 </r>
       <r>    6.5677    0.0000 </r>
       <r>    7.0026    0.0000 </r>
       <r>    7.0040    0.0000 </r>
       <r>    7.0087    0.0000 </r>
       <r>    7.2351    0.0000 </r>
       <r>    7.4899    0.0000 </r>
       <r>    7.4906    0.0000 </r>
       <r>    7.4963    0.0000 </r>
       <r>    7.6154    0.0000 </r>
       <r>    7.6158    0.0000 </r>
       <r>    7.6234    0.0000 </r>
       <r>    7.7781    0.0000 </r>
       <r>    7.7796    0.0000 </r>
       <r>    7.7826    0.0000 </r>
       <r>    7.7981    0.0000 </r>
       <r>    7.8030    0.0000 </r>
       <r>    7.8052    0.0000 </r>
       <r>    8.0250    0.0000 </r>
       <r>    8.0251    0.0000 </r>
       <r>    8.0265    0.0000 </r>
       <r>    8.0293    0.0000 </r>
       <r>    8.0317    0.0000 </r>
       <r>    8.0351    0.0000 </r>
       <r>    8.0835    0.0000 </r>
       <r>    8.2932    0.0000 </r>
       <r>    8.2940    0.0000 </r>
       <r>    8.2984    0.0000 </r>
       <r>    8.4959    0.0000 </r>
       <r>    8.4975    0.0000 </r>
       <r>    8.5013    0.0000 </r>
       <r>    8.5048    0.0000 </r>
       <r>    8.5072    0.0000 </r>
       <r>    8.5211    0.0000 </r>
       <r>    8.5441    0.0000 </r>
      </set>
      <set comment="kpoint 2">
       <r>   -5.9933    1.0000 </r>
       <r>   -5.4671    1.0000 </r>
       <r>   -5.4661    1.0000 </r>
       <r>   -5.4608    1.0000 </r>
       <r>   -4.9681    1.0000 </r>
       <r>   -4.9670    1.0000 </r>
       <r>   -4.9616    1.0000 </r>
       <r>   -4.5332    1.0000 </r>
       <r>   -4.4355    1.0000 </r>
       <r>   -4.4340    1.0000 </r>
       <r>   -4.4291    1.0000 </r>
       <r>   -4.0201    1.0000 </r>
       <r>   -4.0183    1.0000 </r>
       <r>   -4.0181    1.0000 </r>
       <r>   -4.0169    1.0000 </r>
       <r>   -4.0150    1.0000 </r>
       <r>   -4.0077    1.0000 </r>
       <r>   -3.8271    1.0000 </r>
       <r>   -3.8262    1.0000 </r>
       <r>   -3.8175    1.0000 </r>
       <r>   -3.3339    1.0000 </r>
       <r>   -3.3302    1.0000 </r>
       <r>   -3.3262    1.0000 </r>
       <r>   -2.9619    1.0000 </r>
       <r>   -2.9595    1.0000 </r>
       <r>   -2.9551    1.0000 </r>
       <r>   -2.7954    1.0000 </r>
       <r>   -2.7936    1.0000 </r>
       <r>   -2.7930    1.0000 </r>
       <r>   -2.7915    1.0000 </r>
       <r>   -2.7901    1.0000 </r>
       <r>   -2.7795    1.0000 </r>
       <r>   -1.2555    1.0000 </r>
       <r>   -1.2544    1.0000 </r>
       <r>   -1.2512    1.0000 </r>
       <r>   -1.2491    1.0000 </r>
       <r>   -1.2482    1.0000 </r>
       <r>   -1.2375    1.0000 </r>
       <r>   -1.1544    1.0000 </r>
       <r>   -1.1509    1.0000 </r>
       <r>   -1.1500    1.0000 </r>
       <r>   -1.0402    1.0000 </r>
       <r>   -1.0347    1.0000 </r>
       <r>   -1.0286    1.0000 </r>
       <r>   -0.9490    1.0000 </r>
       <r>   -0.9445    1.0000 </r>
       <r>   -0.9344    1.0000 </r>
       <r>   -0.2410    1.0000 </r>
       <r>   -0.1683    1.0000 </r>
       <r>   -0.1667    1.0000 </r>
       <r>   -0.1628    1.0000 </r>
       <r>   -0.1603    1.0000 </r>
       <r>   -0.1596    1.0000 </r>
       <r>   -0.1517    1.0000 </r>
       <r>    0.7109    1.0000 </r>
       <r>    0.7145    1.0000 </r>
       <r>    0.7243    1.0000 </r>
       <r>    1.0434    1.0000 </r>
       <r>    1.0455    1.0000 </r>
       <r>    1.0522    1.0000 </r>
       <r>    1.6523    1.0000 </r>
       <r>    1.6554    1.0000 </r>
       <r>    1.6562    1.0000 </r>
       <r>    1.6564    1.0000 </r>
       <r>    1.6585    1.0000 </r>
       <r>    1.6622    1.0000 </r>
       <r>    1.7127    1.0000 </r>
       <r>    1.7135    1.0000 </r>
       <r>    1.7190    1.0000 </r>
       <r>    2.2681    1.0000 </r>
       <r>    2.2698    1.0000 </r>
       <r>    2.2708    1.0000 </r>
       <r>    2.3651    1.0000 </r>
       <r>    2.3670    1.0000 </r>
       <r>    2.3690    1.0000 </r>
       <r>    2.3700    1.0000 </r>
       <r>    2.3727    1.0000 </r>
       <r>    2.3739    1.0000 </r>
       <r>    2.4186    1.0000 </r>
       <r>    2.4223    1.0000 </r>
       <r>    2.4276    1.0000 </r>
       <r>    2.7301    1.0000 </r>
       <r>    2.7329    1.0000 </r>
       <r>    2.7338    1.0000 </r>
       <r>    2.7346    1.0000 </r>
       <r>    2.7357    1.0000 </r>
       <r>    2.7432    1.0000 </r>
       <r>    2.9954    1.0000 </r>
       <r>    2.9980    1.0000 </r>
       <r>    3.0008    1.0000 </r>
       <r>    3.0100    1.0000 </r>
       <r>    3.0103    1.0000 </r>
       <r>    3.0169    1.0000 </r>
       <r>    3.3608    1.0000 </r>
       <r>    3.3620    1.0000 </r>
       <r>    3.3680    1.0000 </r>
       <r>    3.3834    1.0000 </r>
       <r>    3.3877    1.0000 </r>
       <r>    3.3915    1.0000 </r>
       <r>    3.4618    1.0000 </r>
       <r>    3.4656    1.0000 </r>
       <r>    3.4692    1.0000 </r>
       <r>    3.7388    1.0000 </r>
       <r>    3.7401    1.0000 </r>
       <r>    3.7410    1.0000 </r>
       <r>    3.7432    1.0000 </r>
       <r>    3.7457    1.0000 </r>
       <r>    3.7540    1.0000 </r>
       <r>    3.7748    1.0000 </r>
       <r>    3.7793    1.0000 </r>
       <r>    3.7846    1.0000 </r>
       <r>    4.0442    1.0000 </r>
       <r>    4.0928    1.0000 </r>
       <r>    4.0957    1.0000 </r>
       <r>    4.0992    1.0000 </r>
       <r>    4.3349    1.0000 </r>
       <r>    4.3398    1.0000 </r>
       <r>    4.3424    1.0000 </r>
       <r>    4.4056    1.0000 </r>
       <r>    4.4079    1.0000 </r>
       <r>    4.4184    1.0000 </r>
       <r>    4.5568    1.0000 </r>
       <r>    4.5666    1.0000 </r>
       <r>    4.8619    1.0000 </r>
       <r>    4.8682    1.0000 </r>
       <r>    4.8725    1.0000 </r>
       <r>    5.3420    1.0000 </r>
       <r>    5.3528    1.0000 </r>
       <r>    6.5591    0.0000 </r>
       <r>    6.5593    0.0000 </r>
       <r>    6.5670    0.0000 </r>
       <r>    6.9981    0.0000 </r>
       <r>    7.0036    0.0000 </r>
       <r>    7.0094    0.0000 </r>
       <r>    7.2323    0.0000 </r>
       <r>    7.4843    0.0000 </r>
       <r>    7.4886    0.0000 </r>
       <r>    7.4946    0.0000 </r>
       <r>    7.6156    0.0000 </r>
       <r>    7.6235    0.0000 </r>
       <r>    7.6236    0.0000 </r>
       <r>    7.7752    0.0000 </r>
       <r>    7.7803    0.0000 </r>
       <r>    7.7826    0.0000 </r>
       <r>    7.7980    0.0000 </r>
       <r>    7.7993    0.0000 </r>
       <r>    7.8042    0.0000 </r>
       <r>    8.0254    0.0000 </r>
       <r>    8.0296    0.0000 </r>
       <r>    8.0301    0.0000 </r>
       <r>    8.0316    0.0000 </r>
       <r>    8.0361    0.0000 </r>
       <r>    8.0402    0.0000 </r>
       <r>    8.0790    0.0000 </r>
       <r>    8.2910    0.0000 </r>
       <r>    8.2952    0.0000 </r>
       <r>    8.2981    0.0000 </r>
       <r>    8.4938    0.0000 </r>
       <r>    8.5000    0.0000 </r>
       <r>    8.5021    0.0000 </r>
       <r>    8.5042    0.0000 </r>
       <r>    8.5162    0.0000 </r>
       <r>    8.5340    0.0000 </r>
       <r>    8.5438    0.0000 </r>
      </set>
     </set>
    </set>
   </array>
  </eigenvalues>
  <separator name="orbital magnetization" >
   <v name="MAGDIPOLOUT">      0.00000000      0.00000000      0.00000000</v>
  </separator>
  <dos>
   <i name="efermi">      5.59636132 </i>
   <total>
    <array>
     <dimension dim="1">gridpoints</dimension>
     <dimension dim="2">spin</dimension>
     <field>energy</field>
     <field>total</field>
     <field>integrated</field>
     <set>
      <set comment="spin 1">
       <r>    -6.7201     0.0000     0.0000 </r>
       <r>    -6.6668     0.0000     0.0000 </r>
       <r>    -6.6135     0.0000     0.0000 </r>
       <r>    -6.5602     0.0000     0.0000 </r>
       <r>    -6.5069     0.0000     0.0000 </r>
       <r>    -6.4536     0.0000     0.0000 </r>
       <r>    -6.4003     0.0000     0.0000 </r>
       <r>    -6.3470     0.0000     0.0000 </r>
       <r>    -6.2937     0.0000     0.0000 </r>
       <r>    -6.2404     0.0000     0.0000 </r>
       <r>    -6.1871     0.0000     0.0000 </r>
       <r>    -6.1338     0.0013     0.0001 </r>
       <r>    -6.0805     0.2530     0.0136 </r>
       <r>    -6.0272     6.0582     0.3365 </r>
       <r>    -5.9739    20.2388     1.4153 </r>
       <r>    -5.9206    10.2198     1.9600 </r>
       <r>    -5.8673     0.7427     1.9996 </r>
       <r>    -5.8140     0.0069     2.0000 </r>
       <r>    -5.7607     0.0000     2.0000 </r>
       <r>    -5.7074     0.0000     2.0000 </r>
       <r>    -5.6540     0.0000     2.0000 </r>
       <r>    -5.6007     0.0070     2.0004 </r>
       <r>    -5.5474     1.1029     2.0592 </r>
       <r>    -5.4941    21.8366     3.2231 </r>
       <r>    -5.4408    61.5152     6.5021 </r>
       <r>    -5.3875    26.4501     7.9120 </r>
       <r>    -5.3342     1.6377     7.9993 </r>
       <r>    -5.2809     0.0130     8.0000 </r>
       <r>    -5.2276     0.0000     8.0000 </r>
       <r>    -5.1743     0.0000     8.0000 </r>
       <r>    -5.1210     0.0006     8.0000 </r>
       <r>    -5.0677     0.2214     8.0118 </r>
       <r>    -5.0144     9.2339     8.5040 </r>
       <r>    -4.9611    52.4265    11.2986 </r>
       <r>    -4.9078    44.8607    13.6898 </r>
       <r>    -4.8545     5.7217    13.9948 </r>
       <r>    -4.8012     0.0975    14.0000 </r>
       <r>    -4.7479     0.0002    14.0000 </r>
       <r>    -4.6946     0.0001    14.0000 </r>
       <r>    -4.6413     0.0384    14.0021 </r>
       <r>    -4.5880     2.1231    14.1152 </r>
       <r>    -4.5347    15.8017    14.9575 </r>
       <r>    -4.4814    26.1844    16.3532 </r>
       <r>    -4.4281    55.1435    19.2926 </r>
       <r>    -4.3748    44.9540    21.6888 </r>
       <r>    -4.3215     5.7399    21.9948 </r>
       <r>    -4.2682     0.0981    22.0000 </r>
       <r>    -4.2148     0.0002    22.0000 </r>
       <r>    -4.1615     0.0054    22.0003 </r>
       <r>    -4.1082     1.1350    22.0608 </r>
       <r>    -4.0549    30.5016    23.6866 </r>
       <r>    -4.0016   117.2296    29.9354 </r>
       <r>    -3.9483    69.9648    33.6648 </r>
       <r>    -3.8950     8.8546    34.1368 </r>
       <r>    -3.8417    32.5518    35.8719 </r>
       <r>    -3.7884    59.7606    39.0574 </r>
       <r>    -3.7351    16.9913    39.9631 </r>
       <r>    -3.6818     0.6893    39.9998 </r>
       <r>    -3.6285     0.0036    40.0000 </r>
       <r>    -3.5752     0.0000    40.0000 </r>
       <r>    -3.5219     0.0000    40.0000 </r>
       <r>    -3.4686     0.0044    40.0002 </r>
       <r>    -3.4153     0.8056    40.0432 </r>
       <r>    -3.3620    18.5280    41.0308 </r>
       <r>    -3.3087    60.5676    44.2593 </r>
       <r>    -3.2554    30.4023    45.8798 </r>
       <r>    -3.2021     2.2333    45.9989 </r>
       <r>    -3.1488     0.0214    46.0000 </r>
       <r>    -3.0955     0.0069    46.0004 </r>
       <r>    -3.0422     1.0848    46.0582 </r>
       <r>    -2.9889    21.6100    47.2101 </r>
       <r>    -2.9356    61.4425    50.4852 </r>
       <r>    -2.8823    27.9012    51.9724 </r>
       <r>    -2.8290    32.6595    53.7133 </r>
       <r>    -2.7756   117.4132    59.9719 </r>
       <r>    -2.7223    69.3268    63.6672 </r>
       <r>    -2.6690     6.1683    63.9960 </r>
       <r>    -2.6157     0.0743    64.0000 </r>
       <r>    -2.5624     0.0001    64.0000 </r>
       <r>    -2.5091     0.0000    64.0000 </r>
       <r>    -2.4558     0.0000    64.0000 </r>
       <r>    -2.4025     0.0000    64.0000 </r>
       <r>    -2.3492     0.0000    64.0000 </r>
       <r>    -2.2959     0.0000    64.0000 </r>
       <r>    -2.2426     0.0000    64.0000 </r>
       <r>    -2.1893     0.0000    64.0000 </r>
       <r>    -2.1360     0.0000    64.0000 </r>
       <r>    -2.0827     0.0000    64.0000 </r>
       <r>    -2.0294     0.0000    64.0000 </r>
       <r>    -1.9761     0.0000    64.0000 </r>
       <r>    -1.9228     0.0000    64.0000 </r>
       <r>    -1.8695     0.0000    64.0000 </r>
       <r>    -1.8162     0.0000    64.0000 </r>
       <r>    -1.7629     0.0000    64.0000 </r>
       <r>    -1.7096     0.0000    64.0000 </r>
       <r>    -1.6563     0.0000    64.0000 </r>
       <r>    -1.6030     0.0000    64.0000 </r>
       <r>    -1.5497     0.0000    64.0000 </r>
       <r>    -1.4964     0.0000    64.0000 </r>
       <r>    -1.4431     0.0000    64.0000 </r>
       <r>    -1.3898     0.0090    64.0005 </r>
       <r>    -1.3364     1.5953    64.0855 </r>
       <r>    -1.2831    36.4457    66.0282 </r>
       <r>    -1.2298   121.6631    72.5133 </r>
       <r>    -1.1765    87.1170    77.1570 </r>
       <r>    -1.1232    67.1196    80.7347 </r>
       <r>    -1.0699    39.2807    82.8285 </r>
       <r>    -1.0166    63.1696    86.1957 </r>
       <r>    -0.9633    67.1702    89.7761 </r>
       <r>    -0.9100    61.8950    93.0753 </r>
       <r>    -0.8567    16.6479    93.9627 </r>
       <r>    -0.8034     0.6959    93.9998 </r>
       <r>    -0.7501     0.0039    94.0000 </r>
       <r>    -0.6968     0.0000    94.0000 </r>
       <r>    -0.6435     0.0000    94.0000 </r>
       <r>    -0.5902     0.0000    94.0000 </r>
       <r>    -0.5369     0.0000    94.0000 </r>
       <r>    -0.4836     0.0000    94.0000 </r>
       <r>    -0.4303     0.0000    94.0000 </r>
       <r>    -0.3770     0.0036    94.0002 </r>
       <r>    -0.3237     0.4833    94.0260 </r>
       <r>    -0.2704     8.5056    94.4793 </r>
       <r>    -0.2171    32.7991    96.2276 </r>
       <r>    -0.1638    98.7379   101.4907 </r>
       <r>    -0.1105   103.5423   107.0099 </r>
       <r>    -0.0572    18.1243   107.9760 </r>
       <r>    -0.0039     0.4485   107.9999 </r>
       <r>     0.0494     0.0014   108.0000 </r>
       <r>     0.1028     0.0000   108.0000 </r>
       <r>     0.1561     0.0000   108.0000 </r>
       <r>     0.2094     0.0000   108.0000 </r>
       <r>     0.2627     0.0000   108.0000 </r>
       <r>     0.3160     0.0000   108.0000 </r>
       <r>     0.3693     0.0000   108.0000 </r>
       <r>     0.4226     0.0000   108.0000 </r>
       <r>     0.4759     0.0000   108.0000 </r>
       <r>     0.5292     0.0000   108.0000 </r>
       <r>     0.5825     0.0122   108.0006 </r>
       <r>     0.6358     1.5476   108.0831 </r>
       <r>     0.6891    25.4909   109.4419 </r>
       <r>     0.7424    61.2866   112.7087 </r>
       <r>     0.7957    22.9525   113.9321 </r>
       <r>     0.8490     1.2637   113.9995 </r>
       <r>     0.9023     0.0118   114.0001 </r>
       <r>     0.9556     0.5652   114.0303 </r>
       <r>     1.0089    15.3716   114.8496 </r>
       <r>     1.0622    58.9259   117.9906 </r>
       <r>     1.1155    34.6527   119.8377 </r>
       <r>     1.1688     3.0102   119.9982 </r>
       <r>     1.2221     0.0344   120.0000 </r>
       <r>     1.2754     0.0000   120.0000 </r>
       <r>     1.3287     0.0000   120.0000 </r>
       <r>     1.3820     0.0000   120.0000 </r>
       <r>     1.4353     0.0000   120.0000 </r>
       <r>     1.4886     0.0002   120.0000 </r>
       <r>     1.5420     0.1346   120.0072 </r>
       <r>     1.5953     9.1682   120.4959 </r>
       <r>     1.6486    85.5149   125.0541 </r>
       <r>     1.7019   145.8825   132.8302 </r>
       <r>     1.7552    81.0857   137.1524 </r>
       <r>     1.8085    15.3793   137.9722 </r>
       <r>     1.8618     0.5201   137.9999 </r>
       <r>     1.9151     0.0023   138.0000 </r>
       <r>     1.9684     0.0000   138.0000 </r>
       <r>     2.0217     0.0000   138.0000 </r>
       <r>     2.0750     0.0000   138.0000 </r>
       <r>     2.1283     0.0047   138.0002 </r>
       <r>     2.1816     0.8433   138.0452 </r>
       <r>     2.2349    19.1119   139.0639 </r>
       <r>     2.2882    63.2031   142.4329 </r>
       <r>     2.3415    74.5721   146.4079 </r>
       <r>     2.3948   145.9624   154.1882 </r>
       <r>     2.4481   114.0051   160.2651 </r>
       <r>     2.5014    30.7083   161.9019 </r>
       <r>     2.5547     1.8242   161.9992 </r>
       <r>     2.6080     0.0555   162.0021 </r>
       <r>     2.6613     4.2863   162.2306 </r>
       <r>     2.7146    59.6404   165.4097 </r>
       <r>     2.7679   121.3975   171.8806 </r>
       <r>     2.8212    38.0454   173.9086 </r>
       <r>     2.8745     1.7352   174.0011 </r>
       <r>     2.9278     3.3475   174.1795 </r>
       <r>     2.9811    51.3289   176.9155 </r>
       <r>     3.0345   121.0891   183.3700 </r>
       <r>     3.0878    46.5655   185.8521 </r>
       <r>     3.1411     2.7521   185.9988 </r>
       <r>     3.1944     0.0224   186.0000 </r>
       <r>     3.2477     0.0804   186.0043 </r>
       <r>     3.3010     5.8844   186.3180 </r>
       <r>     3.3543    63.3213   189.6932 </r>
       <r>     3.4076   121.0217   196.1441 </r>
       <r>     3.4609    81.7614   200.5023 </r>
       <r>     3.5142    55.4785   203.4595 </r>
       <r>     3.5675     9.8895   203.9866 </r>
       <r>     3.6208     0.3370   204.0046 </r>
       <r>     3.6741     6.9066   204.3728 </r>
       <r>     3.7274    79.1992   208.5944 </r>
       <r>     3.7807   164.6697   217.3719 </r>
       <r>     3.8340    78.1845   221.5394 </r>
       <r>     3.8873     8.4831   221.9916 </r>
       <r>     3.9406     0.2519   222.0050 </r>
       <r>     3.9939     3.6743   222.2009 </r>
       <r>     4.0472    26.4092   223.6086 </r>
       <r>     4.1005    65.0891   227.0781 </r>
       <r>     4.1538    48.2722   229.6511 </r>
       <r>     4.2071     6.4355   229.9942 </r>
       <r>     4.2604     1.4293   230.0704 </r>
       <r>     4.3137    24.2047   231.3606 </r>
       <r>     4.3670    76.6572   235.4467 </r>
       <r>     4.4203    82.7696   239.8586 </r>
       <r>     4.4737    37.2614   241.8448 </r>
       <r>     4.5270    14.6598   242.6262 </r>
       <r>     4.5803    39.7873   244.7470 </r>
       <r>     4.6336    21.7163   245.9046 </r>
       <r>     4.6869     1.7712   245.9990 </r>
       <r>     4.7402     0.0345   246.0008 </r>
       <r>     4.7935     1.7695   246.0951 </r>
       <r>     4.8468    27.0721   247.5382 </r>
       <r>     4.9001    61.1080   250.7955 </r>
       <r>     4.9534    21.4908   251.9410 </r>
       <r>     5.0067     1.0996   251.9996 </r>
       <r>     5.0600     0.0073   252.0000 </r>
       <r>     5.1133     0.0000   252.0000 </r>
       <r>     5.1666     0.0000   252.0000 </r>
       <r>     5.2199     0.0109   252.0006 </r>
       <r>     5.2732     1.2171   252.0655 </r>
       <r>     5.3265    18.1623   253.0336 </r>
       <r>     5.3798    40.5725   255.1962 </r>
       <r>     5.4331    14.3263   255.9599 </r>
       <r>     5.4864     0.7475   255.9997 </r>
       <r>     5.5397     0.0051   256.0000 </r>
       <r>     5.5930     0.0000   256.0000 </r>
       <r>     5.6463     0.0000   256.0000 </r>
       <r>     5.6996     0.0000   256.0000 </r>
       <r>     5.7529     0.0000   256.0000 </r>
       <r>     5.8062     0.0000   256.0000 </r>
       <r>     5.8595     0.0000   256.0000 </r>
       <r>     5.9129     0.0000   256.0000 </r>
       <r>     5.9662     0.0000   256.0000 </r>
       <r>     6.0195     0.0000   256.0000 </r>
       <r>     6.0728     0.0000   256.0000 </r>
       <r>     6.1261     0.0000   256.0000 </r>
       <r>     6.1794     0.0000   256.0000 </r>
       <r>     6.2327     0.0000   256.0000 </r>
       <r>     6.2860     0.0000   256.0000 </r>
       <r>     6.3393     0.0000   256.0000 </r>
       <r>     6.3926     0.0001   256.0000 </r>
       <r>     6.4459     0.0538   256.0029 </r>
       <r>     6.4992     3.9559   256.2137 </r>
       <r>     6.5525    38.7622   258.2799 </r>
       <r>     6.6058    56.6803   261.3012 </r>
       <r>     6.6591    12.7098   261.9787 </r>
       <r>     6.7124     0.3989   261.9999 </r>
       <r>     6.7657     0.0016   262.0000 </r>
       <r>     6.8190     0.0000   262.0000 </r>
       <r>     6.8723     0.0114   262.0006 </r>
       <r>     6.9256     1.4908   262.0801 </r>
       <r>     6.9789    25.1357   263.4199 </r>
       <r>     7.0322    61.4814   266.6971 </r>
       <r>     7.0855    23.1747   267.9324 </r>
       <r>     7.1388     1.3974   268.0069 </r>
       <r>     7.1921     4.3767   268.2402 </r>
       <r>     7.2454    19.1324   269.2600 </r>
       <r>     7.2987    12.6442   269.9340 </r>
       <r>     7.3521     1.2287   269.9995 </r>
       <r>     7.4054     0.9345   270.0493 </r>
       <r>     7.4587    19.7661   271.1029 </r>
       <r>     7.5120    61.0462   274.3569 </r>
       <r>     7.5653    35.9476   276.2730 </r>
       <r>     7.6186    49.9126   278.9335 </r>
       <r>     7.6719    49.7221   281.5839 </r>
       <r>     7.7252    16.3969   282.4579 </r>
       <r>     7.7785    75.3608   286.4749 </r>
       <r>     7.8318   111.2167   292.4032 </r>
       <r>     7.8851    28.7714   293.9368 </r>
       <r>     7.9384     2.2776   294.0582 </r>
       <r>     7.9917    30.2554   295.6709 </r>
       <r>     8.0450   122.5533   302.2035 </r>
       <r>     8.0983    90.4827   307.0266 </r>
       <r>     8.1516    17.3060   307.9490 </r>
       <r>     8.2049     1.5700   308.0327 </r>
       <r>     8.2582    16.2546   308.8991 </r>
       <r>     8.3115    59.6244   312.0773 </r>
       <r>     8.3648    33.3326   313.8541 </r>
       <r>     8.4181     4.5216   314.0951 </r>
       <r>     8.4714    37.7182   316.1056 </r>
       <r>     8.5247   126.8188   322.8655 </r>
       <r>     8.5780    83.7514   327.3298 </r>
       <r>     8.6313    12.2172   327.9810 </r>
       <r>     8.6846     0.3544   327.9999 </r>
       <r>     8.7379     0.0016   328.0000 </r>
       <r>     8.7913     0.0000   328.0000 </r>
       <r>     8.8446     0.0000   328.0000 </r>
       <r>     8.8979     0.0000   328.0000 </r>
       <r>     8.9512     0.0000   328.0000 </r>
       <r>     9.0045     0.0000   328.0000 </r>
       <r>     9.0578     0.0000   328.0000 </r>
       <r>     9.1111     0.0000   328.0000 </r>
       <r>     9.1644     0.0000   328.0000 </r>
       <r>     9.2177     0.0000   328.0000 </r>
       <r>     9.2710     0.0000   328.0000 </r>
      </set>
     </set>
    </array>
   </total>
  </dos>
 </calculation>
 <structure name="finalpos" >
  <crystal>
   <varray name="basis" >
    <v>      10.93252578       0.00000000       0.00000000 </v>
    <v>       0.00000000      10.93252578       0.00000000 </v>
    <v>       0.00000000       0.00000000      10.93252578 </v>
   </varray>
   <i name="volume">   1306.65679237 </i>
   <varray name="rec_basis" >
    <v>       0.09147017       0.00000000       0.00000000 </v>
    <v>       0.00000000       0.09147017       0.00000000 </v>
    <v>       0.00000000       0.00000000       0.09147017 </v>
   </varray>
  </crystal>
  <varray name="positions" >
   <v>       0.44024411       0.43750000       0.43750000 </v>
   <v>       0.93750000       0.43750000       0.43750000 </v>
   <v>       0.43750000       0.93750000       0.43750000 </v>
   <v>       0.93750000       0.93750000       0.43750000 </v>
   <v>       0.43750000       0.43750000       0.93750000 </v>
   <v>       0.93750000       0.43750000       0.93750000 </v>
   <v>       0.43750000       0.93750000       0.93750000 </v>
   <v>       0.93750000       0.93750000       0.93750000 </v>
   <v>       0.43750000       0.18750000       0.18750000 </v>
   <v>       0.93750000       0.18750000       0.18750000 </v>
   <v>       0.44024411       0.68750000       0.18750000 </v>
   <v>       0.93750000       0.68750000       0.18750000 </v>
   <v>       0.43750000       0.18750000       0.68750000 </v>
   <v>       0.93750000       0.18750000       0.68750000 </v>
   <v>       0.43750000       0.68750000       0.68750000 </v>
   <v>       0.93750000       0.68750000       0.68750000 </v>
   <v>       0.18750000       0.43750000       0.18750000 </v>
   <v>       0.68750000       0.43750000       0.18750000 </v>
   <v>       0.18750000       0.93750000       0.18750000 </v>
   <v>       0.68750000       0.93750000       0.18750000 </v>
   <v>       0.18750000       0.43750000       0.68750000 </v>
   <v>       0.68750000       0.43750000       0.68750000 </v>
   <v>       0.18750000       0.93750000       0.68750000 </v>
   <v>       0.68750000       0.93750000       0.68750000 </v>
   <v>       0.18750000       0.18750000       0.43750000 </v>
   <v>       0.68750000       0.18750000       0.43750000 </v>
   <v>       0.18750000       0.68750000       0.43750000 </v>
   <v>       0.68750000       0.68750000       0.43750000 </v>
   <v>       0.18750000       0.18750000       0.93750000 </v>
   <v>       0.68750000       0.18750000       0.93750000 </v>
   <v>       0.18750000       0.68750000       0.93750000 </v>
   <v>       0.68750000       0.68750000       0.93750000 </v>
   <v>       0.06250000       0.06250000       0.06250000 </v>
   <v>       0.56250000       0.06250000       0.06250000 </v>
   <v>       0.06250000       0.56250000       0.06250000 </v>
   <v>       0.56250000       0.56250000       0.06250000 </v>
   <v>       0.06250000       0.06250000       0.56250000 </v>
   <v>       0.56250000       0.06250000       0.56250000 </v>
   <v>       0.06250000       0.56250000       0.56250000 </v>
   <v>       0.56250000       0.56250000       0.56250000 </v>
   <v>       0.06250000       0.31250000       0.31250000 </v>
   <v>       0.56250000       0.31250000       0.31250000 </v>
   <v>       0.06250000       0.81250000       0.31250000 </v>
   <v>       0.56250000       0.81250000       0.31250000 </v>
   <v>       0.06250000       0.31250000       0.81250000 </v>
   <v>       0.56250000       0.31250000       0.81250000 </v>
   <v>       0.06250000       0.81250000       0.81250000 </v>
   <v>       0.56250000       0.81250000       0.81250000 </v>
   <v>       0.31250000       0.06250000       0.31250000 </v>
   <v>       0.81250000       0.06250000       0.31250000 </v>
   <v>       0.31250000       0.56250000       0.31250000 </v>
   <v>       0.81250000       0.56250000       0.31250000 </v>
   <v>       0.31250000       0.06250000       0.81250000 </v>
   <v>       0.81250000       0.06250000       0.81250000 </v>
   <v>       0.31250000       0.56250000       0.81250000 </v>
   <v>       0.81250000       0.56250000       0.81250000 </v>
   <v>       0.31250000       0.31250000       0.06250000 </v>
   <v>       0.81250000       0.31250000       0.06250000 </v>
   <v>       0.31250000       0.81250000       0.06250000 </v>
   <v>       0.81250000       0.81250000       0.06250000 </v>
   <v>       0.31250000       0.31250000       0.56250000 </v>
   <v>       0.81250000       0.31250000       0.56250000 </v>
   <v>       0.31250000       0.81250000       0.56250000 </v>
   <v>       0.81250000       0.81250000       0.56250000 </v>
  </varray>
 </structure>
</modeling>
