
     Program PWSCF v.5.3.0 (svn rev. 11974) starts on  3Feb2016 at 13:47:27 

     This program is part of the open-source Quantum ESPRESSO suite
     for quantum simulation of materials; please cite
         "P. Giannozzi et al., J. Phys.:Condens. Matter 21 395502 (2009);
          URL http://www.quantum-espresso.org", 
     in publications or presentations arising from this work. More details at
     http://www.quantum-espresso.org/quote

     Parallel version (MPI), running on    16 processors
     R & G space division:  proc/nbgrp/npool/nimage =      16
     Reading input from Si.in

     Current dimensions of program PWSCF are:
     Max number of different atomic species (ntypx) = 10
     Max number of k-points (npk) =  40000
     Max angular momentum in pseudopotentials (lmaxx) =  3
               file Si.pbe-n-kjpaw_psl.0.1.UPF: wavefunction(s)  3S renormalized

     Subspace diagonalization in iterative solution of the eigenvalue problem:
     one sub-group per k-point group (pool) will be used
     scalapack distributed-memory algorithm (size of sub-group:  2*  2 procs)

 
     Parallelization info
     --------------------
     sticks:   dense  smooth     PW     G-vecs:    dense   smooth      PW
     Min         424     424    109                26332    26332    3467
     Max         425     425    110                26336    26336    3472
     Sum        6785    6785   1757               421349   421349   55515
 


     bravais-lattice index     =            0
     lattice parameter (alat)  =      20.6591  a.u.
     unit-cell volume          =    8817.2783 (a.u.)^3
     number of atoms/cell      =           64
     number of atomic types    =            1
     number of electrons       =       256.00
     number of Kohn-Sham states=          154
     kinetic-energy cutoff     =      50.0000  Ry
     charge density cutoff     =     200.0000  Ry
     convergence threshold     =      1.0E-09
     mixing beta               =       0.7000
     number of iterations used =            8  plain     mixing
     Exchange-correlation      =  SLA  PW   PBX  PBC ( 1  4  3  4 0 0)

     celldm(1)=  20.659106  celldm(2)=   0.000000  celldm(3)=   0.000000
     celldm(4)=   0.000000  celldm(5)=   0.000000  celldm(6)=   0.000000

     crystal axes: (cart. coord. in units of alat)
               a(1) = (   1.000000   0.000000   0.000000 )  
               a(2) = (   0.000000   1.000000   0.000000 )  
               a(3) = (   0.000000   0.000000   1.000000 )  

     reciprocal axes: (cart. coord. in units 2 pi/alat)
               b(1) = (  1.000000  0.000000  0.000000 )  
               b(2) = (  0.000000  1.000000  0.000000 )  
               b(3) = (  0.000000  0.000000  1.000000 )  


     PseudoPot. # 1 for Si read from file:
     /home/togo/espresso/pseudo/Si.pbe-n-kjpaw_psl.0.1.UPF
     MD5 check sum: b9d333a40e496bef61db012f150758bf
     Pseudo is Projector augmented-wave + core cor, Zval =  4.0
     Generated using "atomic" code by A. Dal Corso  v.5.0.2 svn rev. 9415
     Shape of augmentation charge: PSQ
     Using radial grid of 1141 points,  4 beta functions with: 
                l(1) =   0
                l(2) =   0
                l(3) =   1
                l(4) =   1
     Q(r) pseudized with 0 coefficients 


     atomic species   valence    mass     pseudopotential
        Si             4.00    28.08550     Si( 1.00)

     No symmetry found



   Cartesian axes

     site n.     atom                  positions (alat units)
         1           Si  tau(   1) = (   0.4404043   0.4375000   0.4375000  )
         2           Si  tau(   2) = (   0.9375000   0.4375000   0.4375000  )
         3           Si  tau(   3) = (   0.4375000   0.9375000   0.4375000  )
         4           Si  tau(   4) = (   0.9375000   0.9375000   0.4375000  )
         5           Si  tau(   5) = (   0.4375000   0.4375000   0.9375000  )
         6           Si  tau(   6) = (   0.9375000   0.4375000   0.9375000  )
         7           Si  tau(   7) = (   0.4375000   0.9375000   0.9375000  )
         8           Si  tau(   8) = (   0.9375000   0.9375000   0.9375000  )
         9           Si  tau(   9) = (   0.4375000   0.1875000   0.1875000  )
        10           Si  tau(  10) = (   0.9375000   0.1875000   0.1875000  )
        11           Si  tau(  11) = (   0.4375000   0.6875000   0.1875000  )
        12           Si  tau(  12) = (   0.9375000   0.6875000   0.1875000  )
        13           Si  tau(  13) = (   0.4375000   0.1875000   0.6875000  )
        14           Si  tau(  14) = (   0.9375000   0.1875000   0.6875000  )
        15           Si  tau(  15) = (   0.4375000   0.6875000   0.6875000  )
        16           Si  tau(  16) = (   0.9375000   0.6875000   0.6875000  )
        17           Si  tau(  17) = (   0.1875000   0.4375000   0.1875000  )
        18           Si  tau(  18) = (   0.6875000   0.4375000   0.1875000  )
        19           Si  tau(  19) = (   0.1875000   0.9375000   0.1875000  )
        20           Si  tau(  20) = (   0.6875000   0.9375000   0.1875000  )
        21           Si  tau(  21) = (   0.1875000   0.4375000   0.6875000  )
        22           Si  tau(  22) = (   0.6875000   0.4375000   0.6875000  )
        23           Si  tau(  23) = (   0.1875000   0.9375000   0.6875000  )
        24           Si  tau(  24) = (   0.6875000   0.9375000   0.6875000  )
        25           Si  tau(  25) = (   0.1875000   0.1875000   0.4375000  )
        26           Si  tau(  26) = (   0.6875000   0.1875000   0.4375000  )
        27           Si  tau(  27) = (   0.1875000   0.6875000   0.4375000  )
        28           Si  tau(  28) = (   0.6875000   0.6875000   0.4375000  )
        29           Si  tau(  29) = (   0.1875000   0.1875000   0.9375000  )
        30           Si  tau(  30) = (   0.6875000   0.1875000   0.9375000  )
        31           Si  tau(  31) = (   0.1875000   0.6875000   0.9375000  )
        32           Si  tau(  32) = (   0.6875000   0.6875000   0.9375000  )
        33           Si  tau(  33) = (   0.0625000   0.0625000   0.0625000  )
        34           Si  tau(  34) = (   0.5625000   0.0625000   0.0625000  )
        35           Si  tau(  35) = (   0.0625000   0.5625000   0.0625000  )
        36           Si  tau(  36) = (   0.5625000   0.5625000   0.0625000  )
        37           Si  tau(  37) = (   0.0625000   0.0625000   0.5625000  )
        38           Si  tau(  38) = (   0.5625000   0.0625000   0.5625000  )
        39           Si  tau(  39) = (   0.0625000   0.5625000   0.5625000  )
        40           Si  tau(  40) = (   0.5625000   0.5625000   0.5625000  )
        41           Si  tau(  41) = (   0.0625000   0.3125000   0.3125000  )
        42           Si  tau(  42) = (   0.5625000   0.3125000   0.3125000  )
        43           Si  tau(  43) = (   0.0625000   0.8125000   0.3125000  )
        44           Si  tau(  44) = (   0.5625000   0.8125000   0.3125000  )
        45           Si  tau(  45) = (   0.0625000   0.3125000   0.8125000  )
        46           Si  tau(  46) = (   0.5625000   0.3125000   0.8125000  )
        47           Si  tau(  47) = (   0.0625000   0.8125000   0.8125000  )
        48           Si  tau(  48) = (   0.5625000   0.8125000   0.8125000  )
        49           Si  tau(  49) = (   0.3125000   0.0625000   0.3125000  )
        50           Si  tau(  50) = (   0.8125000   0.0654043   0.3125000  )
        51           Si  tau(  51) = (   0.3125000   0.5625000   0.3125000  )
        52           Si  tau(  52) = (   0.8125000   0.5625000   0.3125000  )
        53           Si  tau(  53) = (   0.3125000   0.0625000   0.8125000  )
        54           Si  tau(  54) = (   0.8125000   0.0625000   0.8125000  )
        55           Si  tau(  55) = (   0.3125000   0.5625000   0.8125000  )
        56           Si  tau(  56) = (   0.8125000   0.5625000   0.8125000  )
        57           Si  tau(  57) = (   0.3125000   0.3125000   0.0625000  )
        58           Si  tau(  58) = (   0.8125000   0.3125000   0.0625000  )
        59           Si  tau(  59) = (   0.3125000   0.8125000   0.0625000  )
        60           Si  tau(  60) = (   0.8125000   0.8125000   0.0625000  )
        61           Si  tau(  61) = (   0.3125000   0.3125000   0.5625000  )
        62           Si  tau(  62) = (   0.8125000   0.3125000   0.5625000  )
        63           Si  tau(  63) = (   0.3125000   0.8125000   0.5625000  )
        64           Si  tau(  64) = (   0.8125000   0.8125000   0.5625000  )

     number of k points=     4  gaussian smearing, width (Ry)=  0.0100
                       cart. coord. in units 2pi/alat
        k(    1) = (   0.2500000   0.2500000   0.2500000), wk =   0.5000000
        k(    2) = (  -0.2500000  -0.2500000   0.2500000), wk =   0.5000000
        k(    3) = (  -0.2500000   0.2500000  -0.2500000), wk =   0.5000000
        k(    4) = (   0.2500000  -0.2500000  -0.2500000), wk =   0.5000000

     Dense  grid:   421349 G-vectors     FFT dimensions: (  96,  96,  96)

     Largest allocated arrays     est. size (Mb)     dimensions
        Kohn-Sham Wavefunctions         7.73 Mb     (    3289,  154)
        NL pseudopotentials            25.70 Mb     (    3289,  512)
        Each V/rho on FFT grid          0.84 Mb     (   55296)
        Each G-vector array             0.20 Mb     (   26336)
        G-vector shells                 0.01 Mb     (    1719)
     Largest temporary arrays     est. size (Mb)     dimensions
        Auxiliary wavefunctions        30.91 Mb     (    3289,  616)
        Each subspace H/S matrix        1.45 Mb     (     308,  308)
        Each <psi_i|beta_j> matrix      1.20 Mb     (     512,  154)
        Arrays for rho mixing           6.75 Mb     (   55296,    8)

     Check: negative/imaginary core charge=   -0.000001    0.000000

     Initial potential from superposition of free atoms

     starting charge  255.96421, renormalised to  256.00000
     Starting wfc are  256 randomized atomic wfcs
     Checking if some PAW data can be deallocated... 

     total cpu time spent up to now is        9.4 secs

     per-process dynamical memory:   114.8 Mb

     Self-consistent Calculation

     iteration #  1     ecut=    50.00 Ry     beta=0.70
     Davidson diagonalization with overlap
     ethr =  1.00E-02,  avg # of iterations =  3.0

     Threshold (ethr) on eigenvalues was too large:
     Diagonalizing with lowered threshold

     Davidson diagonalization with overlap
     ethr =  7.00E-04,  avg # of iterations =  1.0

     total cpu time spent up to now is       45.2 secs

     total energy              =   -2990.45692320 Ry
     Harris-Foulkes estimate   =   -2990.87684134 Ry
     estimated scf accuracy    <       1.77336679 Ry

     iteration #  2     ecut=    50.00 Ry     beta=0.70
     Davidson diagonalization with overlap
     ethr =  6.93E-04,  avg # of iterations =  1.0

     total cpu time spent up to now is       58.3 secs

     total energy              =   -2990.52359857 Ry
     Harris-Foulkes estimate   =   -2990.52748010 Ry
     estimated scf accuracy    <       0.07631084 Ry

     iteration #  3     ecut=    50.00 Ry     beta=0.70
     Davidson diagonalization with overlap
     ethr =  2.98E-05,  avg # of iterations = 10.0

     total cpu time spent up to now is       87.2 secs

     total energy              =   -2990.53054685 Ry
     Harris-Foulkes estimate   =   -2990.53137954 Ry
     estimated scf accuracy    <       0.00201213 Ry

     iteration #  4     ecut=    50.00 Ry     beta=0.70
     Davidson diagonalization with overlap
     ethr =  7.86E-07,  avg # of iterations =  8.0

     total cpu time spent up to now is      136.3 secs

     total energy              =   -2990.53030814 Ry
     Harris-Foulkes estimate   =   -2990.53280944 Ry
     estimated scf accuracy    <       0.00784451 Ry

     iteration #  5     ecut=    50.00 Ry     beta=0.70
     Davidson diagonalization with overlap
     ethr =  7.86E-07,  avg # of iterations =  4.8

     total cpu time spent up to now is      160.6 secs

     total energy              =   -2990.53147571 Ry
     Harris-Foulkes estimate   =   -2990.53160419 Ry
     estimated scf accuracy    <       0.00037242 Ry

     iteration #  6     ecut=    50.00 Ry     beta=0.70
     Davidson diagonalization with overlap
     ethr =  1.45E-07,  avg # of iterations =  2.0

     total cpu time spent up to now is      176.8 secs

     total energy              =   -2990.53154126 Ry
     Harris-Foulkes estimate   =   -2990.53155728 Ry
     estimated scf accuracy    <       0.00004628 Ry

     iteration #  7     ecut=    50.00 Ry     beta=0.70
     Davidson diagonalization with overlap
     ethr =  1.81E-08,  avg # of iterations =  2.8

     total cpu time spent up to now is      199.6 secs

     total energy              =   -2990.53154978 Ry
     Harris-Foulkes estimate   =   -2990.53155149 Ry
     estimated scf accuracy    <       0.00000393 Ry

     iteration #  8     ecut=    50.00 Ry     beta=0.70
     Davidson diagonalization with overlap
     ethr =  1.54E-09,  avg # of iterations =  3.0

     total cpu time spent up to now is      220.4 secs

     total energy              =   -2990.53155086 Ry
     Harris-Foulkes estimate   =   -2990.53155105 Ry
     estimated scf accuracy    <       0.00000041 Ry

     iteration #  9     ecut=    50.00 Ry     beta=0.70
     Davidson diagonalization with overlap
     ethr =  1.62E-10,  avg # of iterations =  3.0

     total cpu time spent up to now is      239.3 secs

     total energy              =   -2990.53155087 Ry
     Harris-Foulkes estimate   =   -2990.53155096 Ry
     estimated scf accuracy    <       0.00000014 Ry

     iteration # 10     ecut=    50.00 Ry     beta=0.70
     Davidson diagonalization with overlap
     ethr =  5.52E-11,  avg # of iterations =  3.0

     total cpu time spent up to now is      257.6 secs

     total energy              =   -2990.53155085 Ry
     Harris-Foulkes estimate   =   -2990.53155090 Ry
     estimated scf accuracy    <       0.00000007 Ry

     iteration # 11     ecut=    50.00 Ry     beta=0.70
     Davidson diagonalization with overlap
     ethr =  2.57E-11,  avg # of iterations =  2.0

     total cpu time spent up to now is      281.9 secs

     total energy              =   -2990.53155087 Ry
     Harris-Foulkes estimate   =   -2990.53155086 Ry
     estimated scf accuracy    <          1.7E-09 Ry

     iteration # 12     ecut=    50.00 Ry     beta=0.70
     Davidson diagonalization with overlap
     ethr =  6.69E-13,  avg # of iterations =  3.0

     total cpu time spent up to now is      307.0 secs

     End of self-consistent calculation

          k = 0.2500 0.2500 0.2500 ( 52563 PWs)   bands (ev):

    -5.6251  -5.1004  -5.0959  -5.0927  -4.6007  -4.5963  -4.5932  -4.1631
    -4.0674  -4.0627  -4.0600  -3.6547  -3.6503  -3.6484  -3.6451  -3.6444
    -3.6395  -3.4592  -3.4548  -3.4502  -2.9631  -2.9571  -2.9555  -2.5945
    -2.5892  -2.5842  -2.4281  -2.4239  -2.4228  -2.4188  -2.4182  -2.4129
    -0.8878  -0.8817  -0.8795  -0.8758  -0.8745  -0.8707  -0.7857  -0.7804
    -0.7752  -0.6677  -0.6623  -0.6562  -0.5840  -0.5758  -0.5686   0.1263
     0.2012   0.2065   0.2096   0.2143   0.2157   0.2172   1.0794   1.0859
     1.0908   1.4139   1.4186   1.4224   2.0235   2.0270   2.0284   2.0300
     2.0323   2.0335   2.0850   2.0885   2.0913   2.6370   2.6402   2.6430
     2.7373   2.7382   2.7427   2.7446   2.7469   2.7490   2.7926   2.7968
     2.8001   3.1004   3.1053   3.1075   3.1087   3.1105   3.1131   3.3693
     3.3713   3.3742   3.3824   3.3865   3.3901   3.7304   3.7347   3.7383
     3.7523   3.7561   3.7612   3.8363   3.8405   3.8420   4.1061   4.1106
     4.1139   4.1148   4.1170   4.1228   4.1499   4.1546   4.1568   4.4129
     4.4676   4.4708   4.4746   4.7107   4.7151   4.7175   4.7730   4.7789
     4.7851   4.9319   4.9406   5.2387   5.2444   5.2476   5.7191   5.7289
     6.9330   6.9356   6.9401   7.3728   7.3773   7.3801   7.5987   7.8582
     7.8619   7.8655   7.9871   7.9917   7.9962   8.1487   8.1509   8.1541
     8.1661   8.1682   8.1734   8.3947   8.3992   8.4011   8.4039   8.4065
     8.4090   8.4479

          k =-0.2500-0.2500 0.2500 ( 52563 PWs)   bands (ev):

    -5.6251  -5.1004  -5.0959  -5.0927  -4.6007  -4.5963  -4.5932  -4.1631
    -4.0674  -4.0627  -4.0600  -3.6547  -3.6503  -3.6484  -3.6451  -3.6444
    -3.6395  -3.4592  -3.4548  -3.4502  -2.9631  -2.9571  -2.9555  -2.5945
    -2.5892  -2.5842  -2.4281  -2.4239  -2.4228  -2.4188  -2.4182  -2.4129
    -0.8878  -0.8817  -0.8795  -0.8758  -0.8745  -0.8707  -0.7857  -0.7804
    -0.7752  -0.6677  -0.6623  -0.6562  -0.5839  -0.5758  -0.5686   0.1263
     0.2012   0.2065   0.2096   0.2143   0.2157   0.2172   1.0794   1.0859
     1.0908   1.4139   1.4186   1.4224   2.0235   2.0270   2.0284   2.0300
     2.0323   2.0335   2.0850   2.0885   2.0913   2.6370   2.6402   2.6430
     2.7373   2.7382   2.7427   2.7446   2.7469   2.7490   2.7926   2.7968
     2.8001   3.1004   3.1053   3.1075   3.1087   3.1105   3.1131   3.3693
     3.3713   3.3742   3.3824   3.3865   3.3901   3.7304   3.7347   3.7383
     3.7523   3.7561   3.7612   3.8363   3.8405   3.8420   4.1061   4.1106
     4.1139   4.1148   4.1170   4.1228   4.1499   4.1546   4.1568   4.4129
     4.4676   4.4708   4.4746   4.7107   4.7151   4.7175   4.7730   4.7789
     4.7851   4.9319   4.9406   5.2387   5.2444   5.2476   5.7191   5.7289
     6.9330   6.9356   6.9401   7.3728   7.3773   7.3801   7.5987   7.8582
     7.8619   7.8655   7.9871   7.9917   7.9962   8.1487   8.1509   8.1541
     8.1661   8.1682   8.1734   8.3947   8.3992   8.4011   8.4039   8.4065
     8.4090   8.4479

          k =-0.2500 0.2500-0.2500 ( 52563 PWs)   bands (ev):

    -5.6251  -5.0997  -5.0973  -5.0917  -4.6001  -4.5979  -4.5923  -4.1641
    -4.0675  -4.0646  -4.0591  -3.6527  -3.6504  -3.6498  -3.6466  -3.6410
    -3.6391  -3.4576  -3.4552  -3.4493  -2.9649  -2.9613  -2.9551  -2.5925
    -2.5910  -2.5832  -2.4270  -2.4252  -2.4227  -2.4204  -2.4162  -2.4112
    -0.8861  -0.8850  -0.8803  -0.8779  -0.8750  -0.8685  -0.7856  -0.7828
    -0.7755  -0.6684  -0.6630  -0.6604  -0.5765  -0.5724  -0.5663   0.1300
     0.2016   0.2026   0.2081   0.2108   0.2135   0.2189   1.0832   1.0889
     1.0913   1.4156   1.4179   1.4214   2.0240   2.0270   2.0278   2.0305
     2.0318   2.0330   2.0851   2.0853   2.0910   2.6398   2.6408   2.6453
     2.7345   2.7374   2.7427   2.7431   2.7461   2.7472   2.7911   2.7930
     2.7987   3.1030   3.1046   3.1063   3.1086   3.1115   3.1125   3.3687
     3.3713   3.3720   3.3821   3.3842   3.3881   3.7337   3.7359   3.7399
     3.7563   3.7574   3.7659   3.8343   3.8394   3.8414   4.1120   4.1133
     4.1142   4.1172   4.1184   4.1260   4.1478   4.1535   4.1566   4.4172
     4.4661   4.4696   4.4703   4.7077   4.7139   4.7155   4.7793   4.7845
     4.7876   4.9325   4.9375   5.2345   5.2428   5.2451   5.7188   5.7244
     6.9323   6.9335   6.9378   7.3691   7.3782   7.3806   7.5972   7.8550
     7.8615   7.8643   7.9884   7.9943   7.9966   8.1454   8.1529   8.1534
     8.1665   8.1691   8.1704   8.3968   8.4014   8.4026   8.4067   8.4074
     8.4101   8.4457

          k = 0.2500-0.2500-0.2500 ( 52563 PWs)   bands (ev):

    -5.6250  -5.1020  -5.0941  -5.0932  -4.6021  -4.5945  -4.5935  -4.1620
    -4.0685  -4.0609  -4.0597  -3.6612  -3.6473  -3.6464  -3.6450  -3.6440
    -3.6413  -3.4602  -3.4542  -3.4521  -2.9623  -2.9553  -2.9525  -2.5955
    -2.5877  -2.5858  -2.4328  -2.4209  -2.4208  -2.4200  -2.4170  -2.4148
    -0.8866  -0.8813  -0.8781  -0.8774  -0.8726  -0.8711  -0.7853  -0.7776
    -0.7757  -0.6642  -0.6616  -0.6556  -0.5889  -0.5764  -0.5758   0.1226
     0.2026   0.2090   0.2106   0.2124   0.2176   0.2215   1.0777   1.0836
     1.0876   1.4152   1.4188   1.4211   2.0237   2.0277   2.0285   2.0316
     2.0319   2.0323   2.0860   2.0899   2.0920   2.6353   2.6388   2.6403
     2.7386   2.7416   2.7429   2.7456   2.7482   2.7499   2.7951   2.8001
     2.8012   3.1000   3.1042   3.1071   3.1097   3.1102   3.1132   3.3708
     3.3722   3.3751   3.3842   3.3880   3.3910   3.7276   3.7349   3.7357
     3.7492   3.7541   3.7565   3.8382   3.8395   3.8442   4.1047   4.1066
     4.1103   4.1147   4.1152   4.1174   4.1525   4.1537   4.1589   4.4089
     4.4711   4.4719   4.4772   4.7137   4.7149   4.7208   4.7682   4.7761
     4.7781   4.9350   4.9400   5.2428   5.2442   5.2521   5.7236   5.7292
     6.9345   6.9382   6.9411   7.3741   7.3764   7.3820   7.6002   7.8605
     7.8630   7.8670   7.9870   7.9890   7.9949   8.1496   8.1507   8.1544
     8.1668   8.1690   8.1744   8.3926   8.3954   8.4017   8.4026   8.4040
     8.4074   8.4502

     the Fermi energy is     6.3273 ev

!    total energy              =   -2990.53155087 Ry
     Harris-Foulkes estimate   =   -2990.53155087 Ry
     estimated scf accuracy    <          9.9E-10 Ry

     total all-electron energy =    -37124.667104 Ry

     The total energy is the sum of the following terms:

     one-electron contribution =     178.60642927 Ry
     hartree contribution      =      35.70149921 Ry
     xc contribution           =    -391.44199964 Ry
     ewald contribution        =    -534.00617270 Ry
     one-center paw contrib.   =   -2279.39130702 Ry
     smearing contrib. (-TS)   =       0.00000000 Ry

     convergence has been achieved in  12 iterations

     Forces acting on atoms (Ry/au):

     atom    1 type  1   force =    -0.01591880    0.00003011   -0.00002931
     atom    2 type  1   force =    -0.00001497   -0.00001155   -0.00003734
     atom    3 type  1   force =     0.00001667   -0.00005927   -0.00005180
     atom    4 type  1   force =    -0.00248840    0.00381207   -0.00248270
     atom    5 type  1   force =     0.00002454   -0.00002223   -0.00003132
     atom    6 type  1   force =    -0.00003832    0.00002791   -0.00002742
     atom    7 type  1   force =    -0.00050177    0.00025297   -0.00002707
     atom    8 type  1   force =    -0.00002729   -0.00005903   -0.00003672
     atom    9 type  1   force =    -0.00048967    0.00005377    0.00006297
     atom   10 type  1   force =     0.00270581    0.00393718   -0.00269568
     atom   11 type  1   force =    -0.00049994    0.00013645   -0.00013545
     atom   12 type  1   force =     0.00003977   -0.00000355   -0.00004798
     atom   13 type  1   force =    -0.00049543    0.00014670    0.00008174
     atom   14 type  1   force =     0.00004950   -0.00006859   -0.00002853
     atom   15 type  1   force =    -0.00049608   -0.00013652   -0.00014543
     atom   16 type  1   force =     0.00002656    0.00001683   -0.00003482
     atom   17 type  1   force =     0.00025880   -0.00008084    0.00025681
     atom   18 type  1   force =     0.00027667   -0.00012599   -0.00019523
     atom   19 type  1   force =     0.00007956   -0.00006891   -0.00002473
     atom   20 type  1   force =     0.00252371    0.00380311    0.00255729
     atom   21 type  1   force =     0.00026175    0.00008827   -0.00019748
     atom   22 type  1   force =     0.00026722    0.00014142    0.00026121
     atom   23 type  1   force =     0.00007048    0.00026194    0.00010478
     atom   24 type  1   force =     0.00009483   -0.00004867   -0.00003857
     atom   25 type  1   force =     0.00019265    0.00016733   -0.00006009
     atom   26 type  1   force =    -0.00246577    0.00369576    0.00259108
     atom   27 type  1   force =     0.00020575   -0.00020107    0.00013474
     atom   28 type  1   force =     0.00019960    0.00021974    0.00015229
     atom   29 type  1   force =     0.00001525    0.00017895    0.00001887
     atom   30 type  1   force =    -0.00000728    0.00001686    0.00002804
     atom   31 type  1   force =     0.00001113    0.00005627    0.00004157
     atom   32 type  1   force =     0.00001681   -0.00005066    0.00003425
     atom   33 type  1   force =    -0.00013572   -0.00049763    0.00014659
     atom   34 type  1   force =     0.00014640   -0.00049611   -0.00008226
     atom   35 type  1   force =     0.00001664    0.00002691    0.00003543
     atom   36 type  1   force =    -0.00006896    0.00005032    0.00002845
     atom   37 type  1   force =     0.00013575   -0.00049858    0.00013544
     atom   38 type  1   force =     0.00005377   -0.00048956   -0.00006346
     atom   39 type  1   force =    -0.00000348    0.00003869    0.00004706
     atom   40 type  1   force =     0.00393775    0.00270454    0.00269675
     atom   41 type  1   force =     0.00022130    0.00019977   -0.00015175
     atom   42 type  1   force =     0.00369604   -0.00246514   -0.00259048
     atom   43 type  1   force =    -0.00020004    0.00020626   -0.00013647
     atom   44 type  1   force =     0.00016526    0.00019296    0.00005978
     atom   45 type  1   force =    -0.00005227    0.00001655   -0.00003531
     atom   46 type  1   force =     0.00001714   -0.00000660   -0.00002897
     atom   47 type  1   force =     0.00005577    0.00001140   -0.00004060
     atom   48 type  1   force =     0.00018005    0.00001440   -0.00001799
     atom   49 type  1   force =    -0.00005945    0.00001631    0.00005173
     atom   50 type  1   force =     0.00003078   -0.01591899    0.00002974
     atom   51 type  1   force =     0.00381117   -0.00248832    0.00248173
     atom   52 type  1   force =    -0.00001199   -0.00001611    0.00003726
     atom   53 type  1   force =     0.00025297   -0.00050242    0.00002764
     atom   54 type  1   force =    -0.00002249    0.00002471    0.00003036
     atom   55 type  1   force =    -0.00005754   -0.00002745    0.00003700
     atom   56 type  1   force =     0.00002739   -0.00003760    0.00002787
     atom   57 type  1   force =    -0.00004876    0.00009471    0.00003915
     atom   58 type  1   force =     0.00014160    0.00026854   -0.00026150
     atom   59 type  1   force =     0.00026167    0.00007031   -0.00010346
     atom   60 type  1   force =     0.00008842    0.00026170    0.00019550
     atom   61 type  1   force =     0.00380251    0.00252416   -0.00255850
     atom   62 type  1   force =    -0.00012634    0.00027626    0.00019657
     atom   63 type  1   force =    -0.00006788    0.00008042    0.00002453
     atom   64 type  1   force =    -0.00008084    0.00025883   -0.00025581

     Total force =     0.027079     Total SCF correction =     0.000050

     Writing output data file pwscf.save
 
     init_run     :      8.72s CPU      8.85s WALL (       1 calls)
     electrons    :    272.35s CPU    299.59s WALL (       1 calls)
     forces       :      4.09s CPU      4.23s WALL (       1 calls)

     Called by init_run:
     wfcinit      :      8.15s CPU      8.23s WALL (       1 calls)
     potinit      :      0.23s CPU      0.24s WALL (       1 calls)

     Called by electrons:
     c_bands      :    246.09s CPU    261.73s WALL (      13 calls)
     sum_band     :     22.40s CPU     22.64s WALL (      13 calls)
     v_of_rho     :      0.68s CPU      0.69s WALL (      13 calls)
     newd         :      0.95s CPU      0.98s WALL (      13 calls)
     PAW_pot      :      2.14s CPU      2.14s WALL (      13 calls)
     mix_rho      :      0.28s CPU      0.28s WALL (      13 calls)

     Called by c_bands:
     init_us_2    :      2.42s CPU      2.47s WALL (     112 calls)
     cegterg      :    238.35s CPU    241.63s WALL (      52 calls)

     Called by sum_band:
     sum_band:bec :      0.04s CPU      0.04s WALL (      52 calls)
     addusdens    :      0.95s CPU      1.07s WALL (      13 calls)

     Called by *egterg:
     h_psi        :    110.92s CPU    111.26s WALL (     242 calls)
     s_psi        :     28.34s CPU     28.39s WALL (     242 calls)
     g_psi        :      1.00s CPU      1.00s WALL (     186 calls)
     cdiaghg      :     38.39s CPU     38.43s WALL (     234 calls)

     Called by h_psi:
     add_vuspsi   :     28.70s CPU     28.76s WALL (     242 calls)

     General routines
     calbec       :     44.11s CPU     44.25s WALL (     310 calls)
     fft          :      0.46s CPU      0.47s WALL (     182 calls)
     fftw         :     54.52s CPU     54.79s WALL (   53446 calls)
     davcio       :      0.00s CPU      0.01s WALL (       4 calls)
 
     Parallel routines
     fft_scatter  :     13.57s CPU     13.43s WALL (   53628 calls)
 
     PWSCF        :  4m45.44s CPU     5m36.09s WALL

 
   This run was terminated on:  13:53: 3   3Feb2016            

=------------------------------------------------------------------------------=
   JOB DONE.
=------------------------------------------------------------------------------=
