<?xml version="1.0" encoding="ISO-8859-1"?>
<modeling>
 <generator>
  <i name="program" type="string">vasp </i>
  <i name="version" type="string">5.4.1  </i>
  <i name="subversion" type="string">05Feb16 (build Mar 26 2016 11:58:25) complex                          parallel </i>
  <i name="platform" type="string">IFC91_ompi </i>
  <i name="date" type="string">2017 03 12 </i>
  <i name="time" type="string">12:13:57 </i>
 </generator>
 <incar>
  <i type="string" name="PREC">accurate</i>
  <i type="int" name="IALGO">    38</i>
  <i type="logical" name="ADDGRID"> T  </i>
  <i type="int" name="NELMIN">     5</i>
  <i type="int" name="IBRION">    -1</i>
  <i name="EDIFF">      0.00000001</i>
  <i name="ENCUT">    300.00000000</i>
  <i type="logical" name="LREAL"> F  </i>
  <i type="int" name="ISMEAR">     0</i>
  <i name="SIGMA">      0.05000000</i>
  <i type="logical" name="LWAVE"> F  </i>
  <i type="logical" name="LCHARG"> F  </i>
  <v type="int" name="KPOINT_BSE">    -1     0     0     0</v>
 </incar>
 <kpoints>
  <generation param="Monkhorst-Pack">
   <v type="int" name="divisions">       2        2        2 </v>
   <v name="usershift">      0.00000000       0.00000000       0.00000000 </v>
   <v name="genvec1">      0.50000000       0.00000000       0.00000000 </v>
   <v name="genvec2">      0.00000000       0.50000000       0.00000000 </v>
   <v name="genvec3">      0.00000000       0.00000000       0.50000000 </v>
   <v name="shift">      0.50000000       0.50000000       0.50000000 </v>
  </generation>
  <varray name="kpointlist" >
   <v>       0.25000000       0.25000000       0.25000000 </v>
   <v>      -0.25000000       0.25000000       0.25000000 </v>
   <v>       0.25000000      -0.25000000       0.25000000 </v>
   <v>      -0.25000000      -0.25000000       0.25000000 </v>
  </varray>
  <varray name="weights" >
   <v>       0.25000000 </v>
   <v>       0.25000000 </v>
   <v>       0.25000000 </v>
   <v>       0.25000000 </v>
  </varray>
 </kpoints>
 <parameters>
  <separator name="general" >
   <i type="string" name="SYSTEM">unknown system</i>
   <i type="logical" name="LCOMPAT"> F  </i>
  </separator>
  <separator name="electronic" >
   <i type="string" name="PREC">accura</i>
   <i name="ENMAX">    300.00000000</i>
   <i name="ENAUG">    322.06900000</i>
   <i name="EDIFF">      0.00000001</i>
   <i type="int" name="IALGO">    38</i>
   <i type="int" name="IWAVPR">    10</i>
   <i type="int" name="NBANDS">   164</i>
   <i name="NELECT">    256.00000000</i>
   <i type="int" name="TURBO">     0</i>
   <i type="int" name="IRESTART">     0</i>
   <i type="int" name="NREBOOT">     0</i>
   <i type="int" name="NMIN">     0</i>
   <i name="EREF">      0.00000000</i>
   <separator name="electronic smearing" >
    <i type="int" name="ISMEAR">     0</i>
    <i name="SIGMA">      0.05000000</i>
    <i name="KSPACING">      0.50000000</i>
    <i type="logical" name="KGAMMA"> T  </i>
   </separator>
   <separator name="electronic projectors" >
    <i type="logical" name="LREAL"> F  </i>
    <v name="ROPT">      0.00000000</v>
    <i type="int" name="LMAXPAW">  -100</i>
    <i type="int" name="LMAXMIX">     2</i>
    <i type="logical" name="NLSPLINE"> F  </i>
   </separator>
   <separator name="electronic startup" >
    <i type="int" name="ISTART">     0</i>
    <i type="int" name="ICHARG">     2</i>
    <i type="int" name="INIWAV">     1</i>
   </separator>
   <separator name="electronic spin" >
    <i type="int" name="ISPIN">     1</i>
    <i type="logical" name="LNONCOLLINEAR"> F  </i>
    <v name="MAGMOM">      1.00000000      1.00000000      1.00000000      1.00000000      1.00000000      1.00000000      1.00000000      1.00000000      1.00000000      1.00000000      1.00000000      1.00000000      1.00000000      1.00000000      1.00000000      1.00000000      1.00000000      1.00000000      1.00000000      1.00000000
      1.00000000      1.00000000      1.00000000      1.00000000      1.00000000      1.00000000      1.00000000      1.00000000      1.00000000      1.00000000      1.00000000      1.00000000      1.00000000      1.00000000      1.00000000      1.00000000      1.00000000      1.00000000      1.00000000      1.00000000
      1.00000000      1.00000000      1.00000000      1.00000000      1.00000000      1.00000000      1.00000000      1.00000000      1.00000000      1.00000000      1.00000000      1.00000000      1.00000000      1.00000000      1.00000000      1.00000000      1.00000000      1.00000000      1.00000000      1.00000000
      1.00000000      1.00000000      1.00000000      1.00000000</v>
    <i name="NUPDOWN">     -1.00000000</i>
    <i type="logical" name="LSORBIT"> F  </i>
    <v name="SAXIS">      0.00000000      0.00000000      1.00000000</v>
    <i type="logical" name="LSPIRAL"> F  </i>
    <v name="QSPIRAL">      0.00000000      0.00000000      0.00000000</v>
    <i type="logical" name="LZEROZ"> F  </i>
   </separator>
   <separator name="electronic exchange-correlation" >
    <i type="logical" name="LASPH"> F  </i>
    <i type="logical" name="LMETAGGA"> F  </i>
   </separator>
   <separator name="electronic convergence" >
    <i type="int" name="NELM">    60</i>
    <i type="int" name="NELMDL">    -5</i>
    <i type="int" name="NELMIN">     5</i>
    <i name="ENINI">    300.00000000</i>
    <separator name="electronic convergence detail" >
     <i type="logical" name="LDIAG"> T  </i>
     <i type="logical" name="LSUBROT"> F  </i>
     <i name="WEIMIN">      0.00000000</i>
     <i name="EBREAK">      0.00000000</i>
     <i name="DEPER">      0.30000000</i>
     <i type="int" name="NRMM">     4</i>
     <i name="TIME">      0.40000000</i>
    </separator>
   </separator>
   <separator name="electronic mixer" >
    <i name="AMIX">      0.40000000</i>
    <i name="BMIX">      1.00000000</i>
    <i name="AMIN">      0.10000000</i>
    <i name="AMIX_MAG">      1.60000000</i>
    <i name="BMIX_MAG">      1.00000000</i>
    <separator name="electronic mixer details" >
     <i type="int" name="IMIX">     4</i>
     <i type="logical" name="MIXFIRST"> F  </i>
     <i type="int" name="MAXMIX">   -45</i>
     <i name="WC">    100.00000000</i>
     <i type="int" name="INIMIX">     1</i>
     <i type="int" name="MIXPRE">     1</i>
     <i type="int" name="MREMOVE">     5</i>
    </separator>
   </separator>
   <separator name="electronic dipolcorrection" >
    <i type="logical" name="LDIPOL"> F  </i>
    <i type="logical" name="LMONO"> F  </i>
    <i type="int" name="IDIPOL">     0</i>
    <i name="EPSILON">      1.00000000</i>
    <v name="DIPOL">   -100.00000000   -100.00000000   -100.00000000</v>
    <i name="EFIELD">      0.00000000</i>
   </separator>
  </separator>
  <separator name="grids" >
   <i type="int" name="NGX">    64</i>
   <i type="int" name="NGY">    64</i>
   <i type="int" name="NGZ">    64</i>
   <i type="int" name="NGXF">   128</i>
   <i type="int" name="NGYF">   128</i>
   <i type="int" name="NGZF">   128</i>
   <i type="logical" name="ADDGRID"> T  </i>
  </separator>
  <separator name="ionic" >
   <i type="int" name="NSW">     0</i>
   <i type="int" name="IBRION">    -1</i>
   <i type="int" name="ISIF">     2</i>
   <i name="PSTRESS">      0.00000000</i>
   <i name="EDIFFG">      0.00000010</i>
   <i type="int" name="NFREE">     0</i>
   <i name="POTIM">      0.50000000</i>
   <i name="SMASS">     -3.00000000</i>
   <i name="SCALEE">      1.00000000</i>
  </separator>
  <separator name="ionic md" >
   <i name="TEBEG">      0.00010000</i>
   <i name="TEEND">      0.00010000</i>
   <i type="int" name="NBLOCK">     1</i>
   <i type="int" name="KBLOCK">     1</i>
   <i type="int" name="NPACO">   256</i>
   <i name="APACO">     16.00000000</i>
  </separator>
  <separator name="symmetry" >
   <i type="int" name="ISYM">     2</i>
   <i name="SYMPREC">      0.00001000</i>
  </separator>
  <separator name="dos" >
   <i type="logical" name="LORBIT"> F  </i>
   <v name="RWIGS">     -1.00000000</v>
   <i type="int" name="NEDOS">   301</i>
   <i name="EMIN">     10.00000000</i>
   <i name="EMAX">    -10.00000000</i>
   <i name="EFERMI">      0.00000000</i>
  </separator>
  <separator name="writing" >
   <i type="int" name="NWRITE">     2</i>
   <i type="logical" name="LWAVE"> F  </i>
   <i type="logical" name="LCHARG"> F  </i>
   <i type="logical" name="LPARD"> F  </i>
   <i type="logical" name="LVTOT"> F  </i>
   <i type="logical" name="LVHAR"> F  </i>
   <i type="logical" name="LELF"> F  </i>
   <i type="logical" name="LOPTICS"> F  </i>
   <v name="STM">      0.00000000      0.00000000      0.00000000      0.00000000      0.00000000      0.00000000      0.00000000</v>
  </separator>
  <separator name="performance" >
   <i type="int" name="NPAR">     4</i>
   <i type="int" name="NSIM">     4</i>
   <i type="int" name="NBLK">    -1</i>
   <i type="logical" name="LPLANE"> T  </i>
   <i type="logical" name="LSCALAPACK"> T  </i>
   <i type="logical" name="LSCAAWARE"> F  </i>
   <i type="logical" name="LSCALU"> F  </i>
   <i type="logical" name="LASYNC"> F  </i>
   <i type="logical" name="LORBITALREAL"> F  </i>
  </separator>
  <separator name="miscellaneous" >
   <i type="int" name="IDIOT">     3</i>
   <i type="logical" name="LMUSIC"> F  </i>
   <v name="POMASS">     28.08500000</v>
   <v name="DARWINR">      0.00000000</v>
   <v name="DARWINV">      1.00000000</v>
   <i type="logical" name="LCORR"> T  </i>
  </separator>
  <i type="logical" name="GGA_COMPAT"> T  </i>
  <i type="logical" name="LBERRY"> F  </i>
  <i type="int" name="ICORELEVEL">     0</i>
  <i type="logical" name="LDAU"> F  </i>
  <i type="int" name="I_CONSTRAINED_M">     0</i>
  <separator name="electronic exchange-correlation" >
   <i type="string" name="GGA">--</i>
   <i type="int" name="VOSKOWN">     0</i>
   <i type="logical" name="LHFCALC"> F  </i>
   <i type="string" name="PRECFOCK"></i>
   <i type="logical" name="LSYMGRAD"> F  </i>
   <i type="logical" name="LHFONE"> F  </i>
   <i type="logical" name="LRHFCALC"> F  </i>
   <i type="logical" name="LTHOMAS"> F  </i>
   <i type="logical" name="LMODELHF"> F  </i>
   <i name="ENCUT4O">     -1.00000000</i>
   <i type="int" name="EXXOEP">     0</i>
   <i type="int" name="FOURORBIT">     0</i>
   <i name="AEXX">      0.00000000</i>
   <i name="HFALPHA">      0.00000000</i>
   <i name="MCALPHA">      0.00000000</i>
   <i name="ALDAX">      1.00000000</i>
   <i name="AGGAX">      1.00000000</i>
   <i name="ALDAC">      1.00000000</i>
   <i name="AGGAC">      1.00000000</i>
   <i type="int" name="NKREDX">     1</i>
   <i type="int" name="NKREDY">     1</i>
   <i type="int" name="NKREDZ">     1</i>
   <i type="logical" name="SHIFTRED"> F  </i>
   <i type="logical" name="ODDONLY"> F  </i>
   <i type="logical" name="EVENONLY"> F  </i>
   <i type="int" name="LMAXFOCK">     0</i>
   <i type="int" name="NMAXFOCKAE">     0</i>
   <i type="logical" name="LFOCKAEDFT"> F  </i>
   <i name="HFSCREEN">      0.00000000</i>
   <i name="HFSCREENC">      0.00000000</i>
   <i type="int" name="NBANDSGWLOW">     0</i>
  </separator>
  <separator name="vdW DFT" >
   <i type="logical" name="LUSE_VDW"> F  </i>
   <i name="Zab_VDW">     -0.84910000</i>
   <i name="PARAM1">      0.12340000</i>
   <i name="PARAM2">      1.00000000</i>
   <i name="PARAM3">      0.00000000</i>
  </separator>
  <separator name="model GW" >
   <i type="int" name="MODEL_GW">     0</i>
   <i name="MODEL_EPS0">     12.24990743</i>
   <i name="MODEL_ALPHA">      1.00000000</i>
  </separator>
  <separator name="linear response parameters" >
   <i type="logical" name="LEPSILON"> F  </i>
   <i type="logical" name="LRPA"> F  </i>
   <i type="logical" name="LNABLA"> F  </i>
   <i type="logical" name="LVEL"> F  </i>
   <i type="int" name="KINTER">     0</i>
   <i name="CSHIFT">      0.10000000</i>
   <i name="OMEGAMAX">     -1.00000000</i>
   <i name="DEG_THRESHOLD">      0.00200000</i>
  </separator>
  <separator name="orbital magnetization" >
   <i type="logical" name="NUCIND"> F  </i>
   <v name="MAGPOS">      0.00000000      0.00000000      0.00000000</v>
   <i type="logical" name="LNICSALL"> T  </i>
   <i type="logical" name="ORBITALMAG"> F  </i>
   <i type="logical" name="LMAGBLOCH"> F  </i>
   <i type="logical" name="LCHIMAG"> F  </i>
   <i type="logical" name="LGAUGE"> T  </i>
   <i type="int" name="MAGATOM">     0</i>
   <v name="MAGDIPOL">      0.00000000      0.00000000      0.00000000</v>
   <v name="AVECCONST">      0.00000000      0.00000000      0.00000000</v>
  </separator>
  <separator name="response functions" >
   <i type="logical" name="LADDER"> F  </i>
   <i type="logical" name="LFXC"> F  </i>
   <i type="logical" name="LHARTREE"> T  </i>
   <i type="int" name="IBSE">     0</i>
   <v type="int" name="KPOINT">    -1     0     0     0</v>
   <i type="logical" name="LTCTE"> F  </i>
   <i type="logical" name="LTETE"> F  </i>
   <i type="logical" name="LTRIPLET"> F  </i>
   <i type="logical" name="LFXCEPS"> F  </i>
   <i type="logical" name="LFXHEG"> F  </i>
   <i type="int" name="NATURALO">     0</i>
   <i type="logical" name="L2ORDER"> F  </i>
   <i type="logical" name="LUSEW"> F  </i>
   <i name="ENCUTGW">     -2.00000000</i>
   <i name="ENCUTGWSOFT">     -2.00000000</i>
   <i name="ENCUTLF">     -1.00000000</i>
   <i type="int" name="LMAXMP2">    -1</i>
   <i name="SCISSOR">      0.00000000</i>
   <i type="int" name="NOMEGA">     0</i>
   <i type="int" name="NOMEGAR">     0</i>
   <i type="int" name="NBANDSGW">    -1</i>
   <i type="int" name="NBANDSO">    -1</i>
   <i type="int" name="NBANDSV">    -1</i>
   <i type="int" name="NELM">     1</i>
   <i type="int" name="NELMHF">     1</i>
   <i type="int" name="DIM">     3</i>
   <i type="int" name="ANTIRES">     0</i>
   <i name="OMEGAMAX">    -30.00000000</i>
   <i name="OMEGAMIN">    -30.00000000</i>
   <i name="OMEGATL">   -200.00000000</i>
   <i type="int" name="OMEGAGRID">     0</i>
   <i name="CSHIFT">     -0.10000000</i>
   <i type="logical" name="SELFENERGY"> F  </i>
   <i type="logical" name="LSPECTRAL"> F  </i>
   <i type="logical" name="LSPECTRALGW"> F  </i>
   <i type="logical" name="LSINGLES"> F  </i>
   <i type="logical" name="LFERMIGW"> F  </i>
   <i type="logical" name="ODDONLYGW"> F  </i>
   <i type="logical" name="EVENONLYGW"> F  </i>
   <i type="int" name="NKREDLFX">     1</i>
   <i type="int" name="NKREDLFY">     1</i>
   <i type="int" name="NKREDLFZ">     1</i>
   <i type="int" name="MAXMEM">  1800</i>
   <i type="int" name="TELESCOPE">     0</i>
   <i type="int" name="TAUPAR">     1</i>
   <i type="int" name="OMEGAPAR">    -1</i>
   <i name="LAMBDA">      1.00000000</i>
  </separator>
  <separator name="External order field" >
   <i name="OFIELD_KAPPA">      0.00000000</i>
   <v name="OFIELD_K">      0.00000000      0.00000000      0.00000000</v>
   <i name="OFIELD_Q6_NEAR">      0.00000000</i>
   <i name="OFIELD_Q6_FAR">      0.00000000</i>
   <i name="OFIELD_A">      0.00000000</i>
  </separator>
 </parameters>
 <atominfo>
  <atoms>      64 </atoms>
  <types>       1 </types>
  <array name="atoms" >
   <dimension dim="1">ion</dimension>
   <field type="string">element</field>
   <field type="int">atomtype</field>
   <set>
    <rc><c>Si</c><c>   1</c></rc>
    <rc><c>Si</c><c>   1</c></rc>
    <rc><c>Si</c><c>   1</c></rc>
    <rc><c>Si</c><c>   1</c></rc>
    <rc><c>Si</c><c>   1</c></rc>
    <rc><c>Si</c><c>   1</c></rc>
    <rc><c>Si</c><c>   1</c></rc>
    <rc><c>Si</c><c>   1</c></rc>
    <rc><c>Si</c><c>   1</c></rc>
    <rc><c>Si</c><c>   1</c></rc>
    <rc><c>Si</c><c>   1</c></rc>
    <rc><c>Si</c><c>   1</c></rc>
    <rc><c>Si</c><c>   1</c></rc>
    <rc><c>Si</c><c>   1</c></rc>
    <rc><c>Si</c><c>   1</c></rc>
    <rc><c>Si</c><c>   1</c></rc>
    <rc><c>Si</c><c>   1</c></rc>
    <rc><c>Si</c><c>   1</c></rc>
    <rc><c>Si</c><c>   1</c></rc>
    <rc><c>Si</c><c>   1</c></rc>
    <rc><c>Si</c><c>   1</c></rc>
    <rc><c>Si</c><c>   1</c></rc>
    <rc><c>Si</c><c>   1</c></rc>
    <rc><c>Si</c><c>   1</c></rc>
    <rc><c>Si</c><c>   1</c></rc>
    <rc><c>Si</c><c>   1</c></rc>
    <rc><c>Si</c><c>   1</c></rc>
    <rc><c>Si</c><c>   1</c></rc>
    <rc><c>Si</c><c>   1</c></rc>
    <rc><c>Si</c><c>   1</c></rc>
    <rc><c>Si</c><c>   1</c></rc>
    <rc><c>Si</c><c>   1</c></rc>
    <rc><c>Si</c><c>   1</c></rc>
    <rc><c>Si</c><c>   1</c></rc>
    <rc><c>Si</c><c>   1</c></rc>
    <rc><c>Si</c><c>   1</c></rc>
    <rc><c>Si</c><c>   1</c></rc>
    <rc><c>Si</c><c>   1</c></rc>
    <rc><c>Si</c><c>   1</c></rc>
    <rc><c>Si</c><c>   1</c></rc>
    <rc><c>Si</c><c>   1</c></rc>
    <rc><c>Si</c><c>   1</c></rc>
    <rc><c>Si</c><c>   1</c></rc>
    <rc><c>Si</c><c>   1</c></rc>
    <rc><c>Si</c><c>   1</c></rc>
    <rc><c>Si</c><c>   1</c></rc>
    <rc><c>Si</c><c>   1</c></rc>
    <rc><c>Si</c><c>   1</c></rc>
    <rc><c>Si</c><c>   1</c></rc>
    <rc><c>Si</c><c>   1</c></rc>
    <rc><c>Si</c><c>   1</c></rc>
    <rc><c>Si</c><c>   1</c></rc>
    <rc><c>Si</c><c>   1</c></rc>
    <rc><c>Si</c><c>   1</c></rc>
    <rc><c>Si</c><c>   1</c></rc>
    <rc><c>Si</c><c>   1</c></rc>
    <rc><c>Si</c><c>   1</c></rc>
    <rc><c>Si</c><c>   1</c></rc>
    <rc><c>Si</c><c>   1</c></rc>
    <rc><c>Si</c><c>   1</c></rc>
    <rc><c>Si</c><c>   1</c></rc>
    <rc><c>Si</c><c>   1</c></rc>
    <rc><c>Si</c><c>   1</c></rc>
    <rc><c>Si</c><c>   1</c></rc>
   </set>
  </array>
  <array name="atomtypes" >
   <dimension dim="1">type</dimension>
   <field type="int">atomspertype</field>
   <field type="string">element</field>
   <field>mass</field>
   <field>valence</field>
   <field type="string">pseudopotential</field>
   <set>
    <rc><c>  64</c><c>Si</c><c>     28.08500000</c><c>      4.00000000</c><c>  PAW_PBE Si 05Jan2001                  </c></rc>
   </set>
  </array>
 </atominfo>
 <structure name="initialpos" >
  <crystal>
   <varray name="basis" >
    <v>      10.93252578       0.00000000       0.00000000 </v>
    <v>       0.00000000      10.93252578       0.00000000 </v>
    <v>       0.00000000       0.00000000      10.93252578 </v>
   </varray>
   <i name="volume">   1306.65679237 </i>
   <varray name="rec_basis" >
    <v>       0.09147017       0.00000000       0.00000000 </v>
    <v>       0.00000000       0.09147017       0.00000000 </v>
    <v>       0.00000000       0.00000000       0.09147017 </v>
   </varray>
  </crystal>
  <varray name="positions" >
   <v>       0.44024411       0.43750000       0.43750000 </v>
   <v>       0.93750000       0.43750000       0.43750000 </v>
   <v>       0.43750000       0.93750000       0.43750000 </v>
   <v>       0.93750000       0.93750000       0.43750000 </v>
   <v>       0.43750000       0.43750000       0.93750000 </v>
   <v>       0.93750000       0.43750000       0.93750000 </v>
   <v>       0.43750000       0.93750000       0.93750000 </v>
   <v>       0.93750000       0.93750000       0.93750000 </v>
   <v>       0.43750000       0.18750000       0.18750000 </v>
   <v>       0.93750000       0.18750000       0.18750000 </v>
   <v>       0.43750000       0.68750000       0.18750000 </v>
   <v>       0.93750000       0.69024411       0.18750000 </v>
   <v>       0.43750000       0.18750000       0.68750000 </v>
   <v>       0.93750000       0.18750000       0.68750000 </v>
   <v>       0.43750000       0.68750000       0.68750000 </v>
   <v>       0.93750000       0.68750000       0.68750000 </v>
   <v>       0.18750000       0.43750000       0.18750000 </v>
   <v>       0.68750000       0.43750000       0.18750000 </v>
   <v>       0.18750000       0.93750000       0.18750000 </v>
   <v>       0.68750000       0.93750000       0.18750000 </v>
   <v>       0.18750000       0.43750000       0.68750000 </v>
   <v>       0.68750000       0.43750000       0.68750000 </v>
   <v>       0.18750000       0.93750000       0.68750000 </v>
   <v>       0.68750000       0.93750000       0.68750000 </v>
   <v>       0.18750000       0.18750000       0.43750000 </v>
   <v>       0.68750000       0.18750000       0.43750000 </v>
   <v>       0.18750000       0.68750000       0.43750000 </v>
   <v>       0.68750000       0.68750000       0.43750000 </v>
   <v>       0.18750000       0.18750000       0.93750000 </v>
   <v>       0.68750000       0.18750000       0.93750000 </v>
   <v>       0.18750000       0.68750000       0.93750000 </v>
   <v>       0.68750000       0.68750000       0.93750000 </v>
   <v>       0.06250000       0.06250000       0.06250000 </v>
   <v>       0.56250000       0.06250000       0.06250000 </v>
   <v>       0.06250000       0.56250000       0.06250000 </v>
   <v>       0.56250000       0.56250000       0.06250000 </v>
   <v>       0.06250000       0.06250000       0.56250000 </v>
   <v>       0.56250000       0.06250000       0.56250000 </v>
   <v>       0.06250000       0.56250000       0.56250000 </v>
   <v>       0.56250000       0.56250000       0.56250000 </v>
   <v>       0.06250000       0.31250000       0.31250000 </v>
   <v>       0.56250000       0.31250000       0.31250000 </v>
   <v>       0.06250000       0.81250000       0.31250000 </v>
   <v>       0.56250000       0.81250000       0.31250000 </v>
   <v>       0.06250000       0.31250000       0.81250000 </v>
   <v>       0.56250000       0.31250000       0.81250000 </v>
   <v>       0.06250000       0.81250000       0.81250000 </v>
   <v>       0.56250000       0.81250000       0.81250000 </v>
   <v>       0.31250000       0.06250000       0.31250000 </v>
   <v>       0.81250000       0.06250000       0.31250000 </v>
   <v>       0.31250000       0.56250000       0.31250000 </v>
   <v>       0.81250000       0.56250000       0.31250000 </v>
   <v>       0.31250000       0.06250000       0.81250000 </v>
   <v>       0.81250000       0.06250000       0.81250000 </v>
   <v>       0.31250000       0.56250000       0.81250000 </v>
   <v>       0.81250000       0.56250000       0.81250000 </v>
   <v>       0.31250000       0.31250000       0.06250000 </v>
   <v>       0.81250000       0.31250000       0.06250000 </v>
   <v>       0.31250000       0.81250000       0.06250000 </v>
   <v>       0.81250000       0.81250000       0.06250000 </v>
   <v>       0.31250000       0.31250000       0.56250000 </v>
   <v>       0.81250000       0.31250000       0.56250000 </v>
   <v>       0.31250000       0.81250000       0.56250000 </v>
   <v>       0.81250000       0.81250000       0.56250000 </v>
  </varray>
 </structure>
 <calculation>
  <scstep>
   <time name="dav">    5.51    5.51</time>
   <time name="total">    5.79    5.80</time>
   <energy>
    <i name="alphaZ">    105.52440745 </i>
    <i name="ewald">  -7265.47124648 </i>
    <i name="hartreedc">   -361.71239986 </i>
    <i name="XCdc">   -597.75714167 </i>
    <i name="pawpsdc">   5639.92317535 </i>
    <i name="pawaedc">  -4513.95313856 </i>
    <i name="eentropy">     -0.00114147 </i>
    <i name="bandstr">    856.84996969 </i>
    <i name="atom">   6596.14994790 </i>
    <i name="e_fr_energy">    459.55243236 </i>
    <i name="e_wo_entrp">    459.55357383 </i>
    <i name="e_0_energy">    459.55300309 </i>
   </energy>
  </scstep>
  <scstep>
   <time name="dav">    6.35    6.36</time>
   <time name="total">    6.35    6.36</time>
   <energy>
    <i name="e_fr_energy">   -300.08458702 </i>
    <i name="e_wo_entrp">   -300.08458702 </i>
    <i name="e_0_energy">   -300.08458702 </i>
   </energy>
  </scstep>
  <scstep>
   <time name="dav">    6.39    6.40</time>
   <time name="total">    6.40    6.41</time>
   <energy>
    <i name="e_fr_energy">   -350.93704588 </i>
    <i name="e_wo_entrp">   -350.93704588 </i>
    <i name="e_0_energy">   -350.93704588 </i>
   </energy>
  </scstep>
  <scstep>
   <time name="dav">    6.37    6.37</time>
   <time name="total">    6.37    6.41</time>
   <energy>
    <i name="e_fr_energy">   -352.26661934 </i>
    <i name="e_wo_entrp">   -352.26661934 </i>
    <i name="e_0_energy">   -352.26661934 </i>
   </energy>
  </scstep>
  <scstep>
   <time name="dav">    6.30    6.31</time>
   <time name="total">    6.60    6.62</time>
   <energy>
    <i name="e_fr_energy">   -352.31297818 </i>
    <i name="e_wo_entrp">   -352.31297818 </i>
    <i name="e_0_energy">   -352.31297818 </i>
   </energy>
  </scstep>
  <scstep>
   <time name="dav">    6.16    6.17</time>
   <time name="total">    6.73    6.78</time>
   <energy>
    <i name="e_fr_energy">   -348.58447489 </i>
    <i name="e_wo_entrp">   -348.58447489 </i>
    <i name="e_0_energy">   -348.58447489 </i>
   </energy>
  </scstep>
  <scstep>
   <time name="dav">    6.08    6.09</time>
   <time name="total">    6.65    6.67</time>
   <energy>
    <i name="e_fr_energy">   -346.87185605 </i>
    <i name="e_wo_entrp">   -346.87185605 </i>
    <i name="e_0_energy">   -346.87185605 </i>
   </energy>
  </scstep>
  <scstep>
   <time name="dav">    6.24    6.24</time>
   <time name="total">    6.80    6.82</time>
   <energy>
    <i name="e_fr_energy">   -346.89812919 </i>
    <i name="e_wo_entrp">   -346.89812919 </i>
    <i name="e_0_energy">   -346.89812919 </i>
   </energy>
  </scstep>
  <scstep>
   <time name="dav">    6.43    6.44</time>
   <time name="total">    6.99    7.01</time>
   <energy>
    <i name="e_fr_energy">   -346.90488202 </i>
    <i name="e_wo_entrp">   -346.90488202 </i>
    <i name="e_0_energy">   -346.90488202 </i>
   </energy>
  </scstep>
  <scstep>
   <time name="dav">    6.00    6.01</time>
   <time name="total">    6.57    6.59</time>
   <energy>
    <i name="e_fr_energy">   -346.90693032 </i>
    <i name="e_wo_entrp">   -346.90693032 </i>
    <i name="e_0_energy">   -346.90693032 </i>
   </energy>
  </scstep>
  <scstep>
   <time name="dav">    6.36    6.36</time>
   <time name="total">    6.93    6.94</time>
   <energy>
    <i name="e_fr_energy">   -346.90690450 </i>
    <i name="e_wo_entrp">   -346.90690450 </i>
    <i name="e_0_energy">   -346.90690450 </i>
   </energy>
  </scstep>
  <scstep>
   <time name="dav">    6.28    6.28</time>
   <time name="total">    6.85    6.86</time>
   <energy>
    <i name="e_fr_energy">   -346.90691942 </i>
    <i name="e_wo_entrp">   -346.90691942 </i>
    <i name="e_0_energy">   -346.90691942 </i>
   </energy>
  </scstep>
  <scstep>
   <time name="dav">    6.19    6.20</time>
   <time name="total">    6.76    6.84</time>
   <energy>
    <i name="e_fr_energy">   -346.90692006 </i>
    <i name="e_wo_entrp">   -346.90692006 </i>
    <i name="e_0_energy">   -346.90692006 </i>
   </energy>
  </scstep>
  <scstep>
   <time name="dav">    6.46    6.68</time>
   <time name="total">    7.03    7.26</time>
   <energy>
    <i name="e_fr_energy">   -346.90692068 </i>
    <i name="e_wo_entrp">   -346.90692068 </i>
    <i name="e_0_energy">   -346.90692068 </i>
   </energy>
  </scstep>
  <scstep>
   <time name="dav">    5.36    5.36</time>
   <time name="total">    5.93    5.94</time>
   <energy>
    <i name="e_fr_energy">   -346.90692043 </i>
    <i name="e_wo_entrp">   -346.90692043 </i>
    <i name="e_0_energy">   -346.90692043 </i>
   </energy>
  </scstep>
  <scstep>
   <time name="dav">    4.31    4.31</time>
   <time name="total">    4.88    4.90</time>
   <energy>
    <i name="e_fr_energy">   -346.90692052 </i>
    <i name="e_wo_entrp">   -346.90692052 </i>
    <i name="e_0_energy">   -346.90692052 </i>
   </energy>
  </scstep>
  <scstep>
   <time name="dav">    4.26    4.27</time>
   <time name="total">    4.83    4.84</time>
   <energy>
    <i name="e_fr_energy">   -346.90692050 </i>
    <i name="e_wo_entrp">   -346.90692050 </i>
    <i name="e_0_energy">   -346.90692050 </i>
   </energy>
  </scstep>
  <scstep>
   <time name="dav">    4.26    4.26</time>
   <time name="total">    4.83    4.84</time>
   <energy>
    <i name="e_fr_energy">   -346.90692051 </i>
    <i name="e_wo_entrp">   -346.90692051 </i>
    <i name="e_0_energy">   -346.90692051 </i>
   </energy>
  </scstep>
  <scstep>
   <time name="dav">    4.26    4.26</time>
   <time name="total">    4.52    4.53</time>
   <energy>
    <i name="alphaZ">    105.52440745 </i>
    <i name="ewald">  -7265.47124648 </i>
    <i name="hartreedc">   -485.14327815 </i>
    <i name="XCdc">   -577.61229135 </i>
    <i name="pawpsdc">  27883.43708648 </i>
    <i name="pawaedc"> -26764.15501495 </i>
    <i name="eentropy">      0.00000000 </i>
    <i name="bandstr">    160.36346859 </i>
    <i name="atom">   6596.14994790 </i>
    <i name="e_fr_energy">   -346.90692052 </i>
    <i name="e_wo_entrp">   -346.90692052 </i>
    <i name="e_0_energy">   -346.90692052 </i>
   </energy>
  </scstep>
  <structure>
   <crystal>
    <varray name="basis" >
     <v>      10.93252578       0.00000000       0.00000000 </v>
     <v>       0.00000000      10.93252578       0.00000000 </v>
     <v>       0.00000000       0.00000000      10.93252578 </v>
    </varray>
    <i name="volume">   1306.65679237 </i>
    <varray name="rec_basis" >
     <v>       0.09147017       0.00000000       0.00000000 </v>
     <v>       0.00000000       0.09147017       0.00000000 </v>
     <v>       0.00000000       0.00000000       0.09147017 </v>
    </varray>
   </crystal>
   <varray name="positions" >
    <v>       0.44024411       0.43750000       0.43750000 </v>
    <v>       0.93750000       0.43750000       0.43750000 </v>
    <v>       0.43750000       0.93750000       0.43750000 </v>
    <v>       0.93750000       0.93750000       0.43750000 </v>
    <v>       0.43750000       0.43750000       0.93750000 </v>
    <v>       0.93750000       0.43750000       0.93750000 </v>
    <v>       0.43750000       0.93750000       0.93750000 </v>
    <v>       0.93750000       0.93750000       0.93750000 </v>
    <v>       0.43750000       0.18750000       0.18750000 </v>
    <v>       0.93750000       0.18750000       0.18750000 </v>
    <v>       0.43750000       0.68750000       0.18750000 </v>
    <v>       0.93750000       0.69024411       0.18750000 </v>
    <v>       0.43750000       0.18750000       0.68750000 </v>
    <v>       0.93750000       0.18750000       0.68750000 </v>
    <v>       0.43750000       0.68750000       0.68750000 </v>
    <v>       0.93750000       0.68750000       0.68750000 </v>
    <v>       0.18750000       0.43750000       0.18750000 </v>
    <v>       0.68750000       0.43750000       0.18750000 </v>
    <v>       0.18750000       0.93750000       0.18750000 </v>
    <v>       0.68750000       0.93750000       0.18750000 </v>
    <v>       0.18750000       0.43750000       0.68750000 </v>
    <v>       0.68750000       0.43750000       0.68750000 </v>
    <v>       0.18750000       0.93750000       0.68750000 </v>
    <v>       0.68750000       0.93750000       0.68750000 </v>
    <v>       0.18750000       0.18750000       0.43750000 </v>
    <v>       0.68750000       0.18750000       0.43750000 </v>
    <v>       0.18750000       0.68750000       0.43750000 </v>
    <v>       0.68750000       0.68750000       0.43750000 </v>
    <v>       0.18750000       0.18750000       0.93750000 </v>
    <v>       0.68750000       0.18750000       0.93750000 </v>
    <v>       0.18750000       0.68750000       0.93750000 </v>
    <v>       0.68750000       0.68750000       0.93750000 </v>
    <v>       0.06250000       0.06250000       0.06250000 </v>
    <v>       0.56250000       0.06250000       0.06250000 </v>
    <v>       0.06250000       0.56250000       0.06250000 </v>
    <v>       0.56250000       0.56250000       0.06250000 </v>
    <v>       0.06250000       0.06250000       0.56250000 </v>
    <v>       0.56250000       0.06250000       0.56250000 </v>
    <v>       0.06250000       0.56250000       0.56250000 </v>
    <v>       0.56250000       0.56250000       0.56250000 </v>
    <v>       0.06250000       0.31250000       0.31250000 </v>
    <v>       0.56250000       0.31250000       0.31250000 </v>
    <v>       0.06250000       0.81250000       0.31250000 </v>
    <v>       0.56250000       0.81250000       0.31250000 </v>
    <v>       0.06250000       0.31250000       0.81250000 </v>
    <v>       0.56250000       0.31250000       0.81250000 </v>
    <v>       0.06250000       0.81250000       0.81250000 </v>
    <v>       0.56250000       0.81250000       0.81250000 </v>
    <v>       0.31250000       0.06250000       0.31250000 </v>
    <v>       0.81250000       0.06250000       0.31250000 </v>
    <v>       0.31250000       0.56250000       0.31250000 </v>
    <v>       0.81250000       0.56250000       0.31250000 </v>
    <v>       0.31250000       0.06250000       0.81250000 </v>
    <v>       0.81250000       0.06250000       0.81250000 </v>
    <v>       0.31250000       0.56250000       0.81250000 </v>
    <v>       0.81250000       0.56250000       0.81250000 </v>
    <v>       0.31250000       0.31250000       0.06250000 </v>
    <v>       0.81250000       0.31250000       0.06250000 </v>
    <v>       0.31250000       0.81250000       0.06250000 </v>
    <v>       0.81250000       0.81250000       0.06250000 </v>
    <v>       0.31250000       0.31250000       0.56250000 </v>
    <v>       0.81250000       0.31250000       0.56250000 </v>
    <v>       0.31250000       0.81250000       0.56250000 </v>
    <v>       0.81250000       0.81250000       0.56250000 </v>
   </varray>
  </structure>
  <varray name="forces" >
   <v>      -0.38690033       0.00103096       0.00185861 </v>
   <v>       0.00321955       0.00564651      -0.00556129 </v>
   <v>       0.00154723       0.00102212      -0.00184707 </v>
   <v>       0.00259498       0.00580135       0.00568453 </v>
   <v>       0.00108609       0.00101742      -0.00186094 </v>
   <v>      -0.00284924       0.00564527       0.00555643 </v>
   <v>      -0.01178041       0.00101685       0.00184398 </v>
   <v>      -0.00218923       0.00580246      -0.00569018 </v>
   <v>      -0.01287974       0.00259368       0.00277668 </v>
   <v>      -0.00002518       0.00077592       0.00022683 </v>
   <v>      -0.01277534       0.00398637      -0.00266417 </v>
   <v>       0.00000221      -0.38690407      -0.00023582 </v>
   <v>      -0.01277586      -0.00208879       0.00266759 </v>
   <v>       0.00000063      -0.00040825       0.00023502 </v>
   <v>      -0.01288391      -0.01431359      -0.00276435 </v>
   <v>      -0.00002546       0.00109112      -0.00022618 </v>
   <v>       0.00008867       0.00297710       0.00823988 </v>
   <v>       0.01136440       0.00287885      -0.00835650 </v>
   <v>       0.00670585       0.00557164       0.00090791 </v>
   <v>      -0.00466692       0.00557315      -0.00092143 </v>
   <v>       0.00750779       0.00368533      -0.00532949 </v>
   <v>       0.00394226       0.00378670       0.00545502 </v>
   <v>      -0.00082908       0.00125040       0.00209183 </v>
   <v>       0.00286689       0.00124883      -0.00207639 </v>
   <v>       0.00542108       0.00553583      -0.00289801 </v>
   <v>       0.00556836      -0.00569090      -0.00253725 </v>
   <v>       0.00287313      -0.01843473      -0.00010168 </v>
   <v>       0.00313076      -0.00708706       0.00543931 </v>
   <v>       0.00124962      -0.00186226      -0.00046437 </v>
   <v>       0.00124958       0.00182181      -0.00000103 </v>
   <v>       0.00368267      -0.01091156      -0.00243691 </v>
   <v>       0.00379572      -0.01473362       0.00300173 </v>
   <v>      -0.00143850       0.00047865       0.00165896 </v>
   <v>       0.00557406       0.00134642       0.00139154 </v>
   <v>      -0.06034308       0.09373040       0.06155778 </v>
   <v>      -0.00236439      -0.00022232       0.00217160 </v>
   <v>      -0.00009151       0.00126215       0.00129129 </v>
   <v>      -0.00222141       0.00039051       0.00195677 </v>
   <v>      -0.00152326      -0.00052126       0.00179884 </v>
   <v>       0.09513463       0.07224017       0.06679555 </v>
   <v>       0.00063258      -0.00118620      -0.00000031 </v>
   <v>       0.09639445      -0.06549822      -0.06545933 </v>
   <v>       0.06673722       0.09521038       0.06547002 </v>
   <v>      -0.00055334      -0.00240047      -0.00000114 </v>
   <v>       0.00127046      -0.00003522      -0.00000011 </v>
   <v>      -0.00072151      -0.00174674      -0.00017046 </v>
   <v>       0.00067658      -0.00222990       0.00016841 </v>
   <v>       0.00689014       0.00553038      -0.00000598 </v>
   <v>      -0.00079397      -0.00022632       0.00053827 </v>
   <v>       0.00156614      -0.00091544      -0.00019543 </v>
   <v>       0.09396203      -0.06239506       0.05970674 </v>
   <v>       0.06067944       0.09215663      -0.06006209 </v>
   <v>       0.00688280      -0.00121017      -0.00006999 </v>
   <v>       0.00017091      -0.00008352       0.00010665 </v>
   <v>      -0.00075369       0.00489076       0.00021501 </v>
   <v>       0.00190926      -0.00214006      -0.00024936 </v>
   <v>      -0.00203203       0.00186196      -0.00154329 </v>
   <v>      -0.00024844       0.00043226      -0.00155048 </v>
   <v>       0.00521266      -0.00079845      -0.00188647 </v>
   <v>      -0.06664983       0.09654790      -0.06685672 </v>
   <v>       0.09232169       0.06042141      -0.06171976 </v>
   <v>      -0.00093092       0.00152187      -0.00150422 </v>
   <v>      -0.00211610       0.00709927      -0.00193330 </v>
   <v>      -0.00054982      -0.00083660      -0.00163132 </v>
  </varray>
  <varray name="stress" >
   <v>       0.00159851       0.00000752       0.33491484 </v>
   <v>       0.00000755       0.00164510       0.33485900 </v>
   <v>       0.33491484       0.33485901       0.02081160 </v>
  </varray>
  <energy>
   <i name="e_fr_energy">   -346.90692052 </i>
   <i name="e_wo_entrp">   -346.90692052 </i>
   <i name="e_0_energy">      0.00000000 </i>
  </energy>
  <time name="totalsc">  129.51  130.13</time>
  <eigenvalues>
   <array>
    <dimension dim="1">band</dimension>
    <dimension dim="2">kpoint</dimension>
    <dimension dim="3">spin</dimension>
    <field>eigene</field>
    <field>occ</field>
    <set>
     <set comment="spin 1">
      <set comment="kpoint 1">
       <r>   -5.9931    1.0000 </r>
       <r>   -5.4677    1.0000 </r>
       <r>   -5.4650    1.0000 </r>
       <r>   -5.4619    1.0000 </r>
       <r>   -4.9681    1.0000 </r>
       <r>   -4.9657    1.0000 </r>
       <r>   -4.9627    1.0000 </r>
       <r>   -4.5313    1.0000 </r>
       <r>   -4.4348    1.0000 </r>
       <r>   -4.4325    1.0000 </r>
       <r>   -4.4290    1.0000 </r>
       <r>   -4.0242    1.0000 </r>
       <r>   -4.0213    1.0000 </r>
       <r>   -4.0163    1.0000 </r>
       <r>   -4.0144    1.0000 </r>
       <r>   -4.0136    1.0000 </r>
       <r>   -4.0116    1.0000 </r>
       <r>   -3.8294    1.0000 </r>
       <r>   -3.8238    1.0000 </r>
       <r>   -3.8217    1.0000 </r>
       <r>   -3.3291    1.0000 </r>
       <r>   -3.3270    1.0000 </r>
       <r>   -3.3237    1.0000 </r>
       <r>   -2.9650    1.0000 </r>
       <r>   -2.9577    1.0000 </r>
       <r>   -2.9559    1.0000 </r>
       <r>   -2.7995    1.0000 </r>
       <r>   -2.7940    1.0000 </r>
       <r>   -2.7912    1.0000 </r>
       <r>   -2.7889    1.0000 </r>
       <r>   -2.7873    1.0000 </r>
       <r>   -2.7860    1.0000 </r>
       <r>   -1.2581    1.0000 </r>
       <r>   -1.2513    1.0000 </r>
       <r>   -1.2486    1.0000 </r>
       <r>   -1.2467    1.0000 </r>
       <r>   -1.2438    1.0000 </r>
       <r>   -1.2418    1.0000 </r>
       <r>   -1.1561    1.0000 </r>
       <r>   -1.1484    1.0000 </r>
       <r>   -1.1464    1.0000 </r>
       <r>   -1.0344    1.0000 </r>
       <r>   -1.0320    1.0000 </r>
       <r>   -1.0265    1.0000 </r>
       <r>   -0.9560    1.0000 </r>
       <r>   -0.9502    1.0000 </r>
       <r>   -0.9461    1.0000 </r>
       <r>   -0.2482    1.0000 </r>
       <r>   -0.1676    1.0000 </r>
       <r>   -0.1622    1.0000 </r>
       <r>   -0.1594    1.0000 </r>
       <r>   -0.1576    1.0000 </r>
       <r>   -0.1542    1.0000 </r>
       <r>   -0.1511    1.0000 </r>
       <r>    0.7075    1.0000 </r>
       <r>    0.7120    1.0000 </r>
       <r>    0.7165    1.0000 </r>
       <r>    1.0455    1.0000 </r>
       <r>    1.0459    1.0000 </r>
       <r>    1.0500    1.0000 </r>
       <r>    1.6529    1.0000 </r>
       <r>    1.6550    1.0000 </r>
       <r>    1.6565    1.0000 </r>
       <r>    1.6574    1.0000 </r>
       <r>    1.6584    1.0000 </r>
       <r>    1.6620    1.0000 </r>
       <r>    1.7148    1.0000 </r>
       <r>    1.7177    1.0000 </r>
       <r>    1.7192    1.0000 </r>
       <r>    2.2632    1.0000 </r>
       <r>    2.2666    1.0000 </r>
       <r>    2.2678    1.0000 </r>
       <r>    2.3680    1.0000 </r>
       <r>    2.3689    1.0000 </r>
       <r>    2.3702    1.0000 </r>
       <r>    2.3729    1.0000 </r>
       <r>    2.3744    1.0000 </r>
       <r>    2.3777    1.0000 </r>
       <r>    2.4231    1.0000 </r>
       <r>    2.4282    1.0000 </r>
       <r>    2.4306    1.0000 </r>
       <r>    2.7299    1.0000 </r>
       <r>    2.7318    1.0000 </r>
       <r>    2.7352    1.0000 </r>
       <r>    2.7362    1.0000 </r>
       <r>    2.7369    1.0000 </r>
       <r>    2.7386    1.0000 </r>
       <r>    2.9985    1.0000 </r>
       <r>    3.0007    1.0000 </r>
       <r>    3.0016    1.0000 </r>
       <r>    3.0131    1.0000 </r>
       <r>    3.0134    1.0000 </r>
       <r>    3.0178    1.0000 </r>
       <r>    3.3570    1.0000 </r>
       <r>    3.3600    1.0000 </r>
       <r>    3.3629    1.0000 </r>
       <r>    3.3772    1.0000 </r>
       <r>    3.3829    1.0000 </r>
       <r>    3.3845    1.0000 </r>
       <r>    3.4652    1.0000 </r>
       <r>    3.4677    1.0000 </r>
       <r>    3.4703    1.0000 </r>
       <r>    3.7302    1.0000 </r>
       <r>    3.7354    1.0000 </r>
       <r>    3.7392    1.0000 </r>
       <r>    3.7417    1.0000 </r>
       <r>    3.7425    1.0000 </r>
       <r>    3.7428    1.0000 </r>
       <r>    3.7793    1.0000 </r>
       <r>    3.7819    1.0000 </r>
       <r>    3.7850    1.0000 </r>
       <r>    4.0368    1.0000 </r>
       <r>    4.0979    1.0000 </r>
       <r>    4.1008    1.0000 </r>
       <r>    4.1017    1.0000 </r>
       <r>    4.3399    1.0000 </r>
       <r>    4.3427    1.0000 </r>
       <r>    4.3461    1.0000 </r>
       <r>    4.3977    1.0000 </r>
       <r>    4.4010    1.0000 </r>
       <r>    4.4052    1.0000 </r>
       <r>    4.5617    1.0000 </r>
       <r>    4.5665    1.0000 </r>
       <r>    4.8689    1.0000 </r>
       <r>    4.8721    1.0000 </r>
       <r>    4.8771    1.0000 </r>
       <r>    5.3493    1.0000 </r>
       <r>    5.3547    1.0000 </r>
       <r>    6.5618    0.0000 </r>
       <r>    6.5656    0.0000 </r>
       <r>    6.5675    0.0000 </r>
       <r>    7.0009    0.0000 </r>
       <r>    7.0033    0.0000 </r>
       <r>    7.0112    0.0000 </r>
       <r>    7.2351    0.0000 </r>
       <r>    7.4885    0.0000 </r>
       <r>    7.4912    0.0000 </r>
       <r>    7.4972    0.0000 </r>
       <r>    7.6151    0.0000 </r>
       <r>    7.6169    0.0000 </r>
       <r>    7.6226    0.0000 </r>
       <r>    7.7776    0.0000 </r>
       <r>    7.7790    0.0000 </r>
       <r>    7.7835    0.0000 </r>
       <r>    7.7991    0.0000 </r>
       <r>    7.8028    0.0000 </r>
       <r>    7.8045    0.0000 </r>
       <r>    8.0235    0.0000 </r>
       <r>    8.0252    0.0000 </r>
       <r>    8.0272    0.0000 </r>
       <r>    8.0303    0.0000 </r>
       <r>    8.0326    0.0000 </r>
       <r>    8.0339    0.0000 </r>
       <r>    8.0837    0.0000 </r>
       <r>    8.2926    0.0000 </r>
       <r>    8.2939    0.0000 </r>
       <r>    8.2991    0.0000 </r>
       <r>    8.4944    0.0000 </r>
       <r>    8.4972    0.0000 </r>
       <r>    8.5014    0.0000 </r>
       <r>    8.5056    0.0000 </r>
       <r>    8.5086    0.0000 </r>
       <r>    8.5195    0.0000 </r>
       <r>    8.5453    0.0000 </r>
      </set>
      <set comment="kpoint 2">
       <r>   -5.9932    1.0000 </r>
       <r>   -5.4680    1.0000 </r>
       <r>   -5.4640    1.0000 </r>
       <r>   -5.4623    1.0000 </r>
       <r>   -4.9685    1.0000 </r>
       <r>   -4.9648    1.0000 </r>
       <r>   -4.9633    1.0000 </r>
       <r>   -4.5322    1.0000 </r>
       <r>   -4.4357    1.0000 </r>
       <r>   -4.4315    1.0000 </r>
       <r>   -4.4301    1.0000 </r>
       <r>   -4.0238    1.0000 </r>
       <r>   -4.0192    1.0000 </r>
       <r>   -4.0167    1.0000 </r>
       <r>   -4.0163    1.0000 </r>
       <r>   -4.0144    1.0000 </r>
       <r>   -4.0083    1.0000 </r>
       <r>   -3.8283    1.0000 </r>
       <r>   -3.8243    1.0000 </r>
       <r>   -3.8202    1.0000 </r>
       <r>   -3.3313    1.0000 </r>
       <r>   -3.3276    1.0000 </r>
       <r>   -3.3262    1.0000 </r>
       <r>   -2.9627    1.0000 </r>
       <r>   -2.9591    1.0000 </r>
       <r>   -2.9558    1.0000 </r>
       <r>   -2.7985    1.0000 </r>
       <r>   -2.7930    1.0000 </r>
       <r>   -2.7912    1.0000 </r>
       <r>   -2.7908    1.0000 </r>
       <r>   -2.7889    1.0000 </r>
       <r>   -2.7824    1.0000 </r>
       <r>   -1.2569    1.0000 </r>
       <r>   -1.2516    1.0000 </r>
       <r>   -1.2496    1.0000 </r>
       <r>   -1.2485    1.0000 </r>
       <r>   -1.2461    1.0000 </r>
       <r>   -1.2404    1.0000 </r>
       <r>   -1.1545    1.0000 </r>
       <r>   -1.1510    1.0000 </r>
       <r>   -1.1476    1.0000 </r>
       <r>   -1.0375    1.0000 </r>
       <r>   -1.0327    1.0000 </r>
       <r>   -1.0277    1.0000 </r>
       <r>   -0.9535    1.0000 </r>
       <r>   -0.9473    1.0000 </r>
       <r>   -0.9393    1.0000 </r>
       <r>   -0.2446    1.0000 </r>
       <r>   -0.1670    1.0000 </r>
       <r>   -0.1638    1.0000 </r>
       <r>   -0.1611    1.0000 </r>
       <r>   -0.1597    1.0000 </r>
       <r>   -0.1567    1.0000 </r>
       <r>   -0.1523    1.0000 </r>
       <r>    0.7086    1.0000 </r>
       <r>    0.7141    1.0000 </r>
       <r>    0.7201    1.0000 </r>
       <r>    1.0430    1.0000 </r>
       <r>    1.0472    1.0000 </r>
       <r>    1.0511    1.0000 </r>
       <r>    1.6518    1.0000 </r>
       <r>    1.6551    1.0000 </r>
       <r>    1.6560    1.0000 </r>
       <r>    1.6579    1.0000 </r>
       <r>    1.6594    1.0000 </r>
       <r>    1.6614    1.0000 </r>
       <r>    1.7137    1.0000 </r>
       <r>    1.7156    1.0000 </r>
       <r>    1.7189    1.0000 </r>
       <r>    2.2656    1.0000 </r>
       <r>    2.2675    1.0000 </r>
       <r>    2.2700    1.0000 </r>
       <r>    2.3655    1.0000 </r>
       <r>    2.3679    1.0000 </r>
       <r>    2.3697    1.0000 </r>
       <r>    2.3723    1.0000 </r>
       <r>    2.3734    1.0000 </r>
       <r>    2.3761    1.0000 </r>
       <r>    2.4208    1.0000 </r>
       <r>    2.4257    1.0000 </r>
       <r>    2.4288    1.0000 </r>
       <r>    2.7291    1.0000 </r>
       <r>    2.7334    1.0000 </r>
       <r>    2.7348    1.0000 </r>
       <r>    2.7353    1.0000 </r>
       <r>    2.7367    1.0000 </r>
       <r>    2.7403    1.0000 </r>
       <r>    2.9960    1.0000 </r>
       <r>    2.9999    1.0000 </r>
       <r>    3.0011    1.0000 </r>
       <r>    3.0100    1.0000 </r>
       <r>    3.0141    1.0000 </r>
       <r>    3.0171    1.0000 </r>
       <r>    3.3589    1.0000 </r>
       <r>    3.3619    1.0000 </r>
       <r>    3.3648    1.0000 </r>
       <r>    3.3807    1.0000 </r>
       <r>    3.3849    1.0000 </r>
       <r>    3.3878    1.0000 </r>
       <r>    3.4644    1.0000 </r>
       <r>    3.4662    1.0000 </r>
       <r>    3.4693    1.0000 </r>
       <r>    3.7333    1.0000 </r>
       <r>    3.7392    1.0000 </r>
       <r>    3.7412    1.0000 </r>
       <r>    3.7419    1.0000 </r>
       <r>    3.7430    1.0000 </r>
       <r>    3.7490    1.0000 </r>
       <r>    3.7782    1.0000 </r>
       <r>    3.7801    1.0000 </r>
       <r>    3.7840    1.0000 </r>
       <r>    4.0404    1.0000 </r>
       <r>    4.0946    1.0000 </r>
       <r>    4.0985    1.0000 </r>
       <r>    4.1009    1.0000 </r>
       <r>    4.3385    1.0000 </r>
       <r>    4.3405    1.0000 </r>
       <r>    4.3441    1.0000 </r>
       <r>    4.4003    1.0000 </r>
       <r>    4.4055    1.0000 </r>
       <r>    4.4119    1.0000 </r>
       <r>    4.5588    1.0000 </r>
       <r>    4.5670    1.0000 </r>
       <r>    4.8666    1.0000 </r>
       <r>    4.8694    1.0000 </r>
       <r>    4.8743    1.0000 </r>
       <r>    5.3451    1.0000 </r>
       <r>    5.3544    1.0000 </r>
       <r>    6.5598    0.0000 </r>
       <r>    6.5638    0.0000 </r>
       <r>    6.5666    0.0000 </r>
       <r>    7.0006    0.0000 </r>
       <r>    7.0031    0.0000 </r>
       <r>    7.0096    0.0000 </r>
       <r>    7.2337    0.0000 </r>
       <r>    7.4870    0.0000 </r>
       <r>    7.4896    0.0000 </r>
       <r>    7.4955    0.0000 </r>
       <r>    7.6157    0.0000 </r>
       <r>    7.6196    0.0000 </r>
       <r>    7.6234    0.0000 </r>
       <r>    7.7757    0.0000 </r>
       <r>    7.7798    0.0000 </r>
       <r>    7.7833    0.0000 </r>
       <r>    7.7976    0.0000 </r>
       <r>    7.8022    0.0000 </r>
       <r>    7.8042    0.0000 </r>
       <r>    8.0245    0.0000 </r>
       <r>    8.0274    0.0000 </r>
       <r>    8.0291    0.0000 </r>
       <r>    8.0317    0.0000 </r>
       <r>    8.0347    0.0000 </r>
       <r>    8.0358    0.0000 </r>
       <r>    8.0814    0.0000 </r>
       <r>    8.2920    0.0000 </r>
       <r>    8.2944    0.0000 </r>
       <r>    8.2985    0.0000 </r>
       <r>    8.4942    0.0000 </r>
       <r>    8.4991    0.0000 </r>
       <r>    8.5002    0.0000 </r>
       <r>    8.5058    0.0000 </r>
       <r>    8.5097    0.0000 </r>
       <r>    8.5234    0.0000 </r>
       <r>    8.5402    0.0000 </r>
      </set>
      <set comment="kpoint 3">
       <r>   -5.9932    1.0000 </r>
       <r>   -5.4672    1.0000 </r>
       <r>   -5.4654    1.0000 </r>
       <r>   -5.4617    1.0000 </r>
       <r>   -4.9680    1.0000 </r>
       <r>   -4.9661    1.0000 </r>
       <r>   -4.9624    1.0000 </r>
       <r>   -4.5323    1.0000 </r>
       <r>   -4.4352    1.0000 </r>
       <r>   -4.4332    1.0000 </r>
       <r>   -4.4290    1.0000 </r>
       <r>   -4.0219    1.0000 </r>
       <r>   -4.0185    1.0000 </r>
       <r>   -4.0176    1.0000 </r>
       <r>   -4.0167    1.0000 </r>
       <r>   -4.0139    1.0000 </r>
       <r>   -4.0101    1.0000 </r>
       <r>   -3.8282    1.0000 </r>
       <r>   -3.8244    1.0000 </r>
       <r>   -3.8203    1.0000 </r>
       <r>   -3.3323    1.0000 </r>
       <r>   -3.3292    1.0000 </r>
       <r>   -3.3235    1.0000 </r>
       <r>   -2.9627    1.0000 </r>
       <r>   -2.9591    1.0000 </r>
       <r>   -2.9558    1.0000 </r>
       <r>   -2.7975    1.0000 </r>
       <r>   -2.7931    1.0000 </r>
       <r>   -2.7916    1.0000 </r>
       <r>   -2.7910    1.0000 </r>
       <r>   -2.7882    1.0000 </r>
       <r>   -2.7835    1.0000 </r>
       <r>   -1.2576    1.0000 </r>
       <r>   -1.2517    1.0000 </r>
       <r>   -1.2494    1.0000 </r>
       <r>   -1.2489    1.0000 </r>
       <r>   -1.2455    1.0000 </r>
       <r>   -1.2403    1.0000 </r>
       <r>   -1.1545    1.0000 </r>
       <r>   -1.1510    1.0000 </r>
       <r>   -1.1475    1.0000 </r>
       <r>   -1.0375    1.0000 </r>
       <r>   -1.0328    1.0000 </r>
       <r>   -1.0276    1.0000 </r>
       <r>   -0.9506    1.0000 </r>
       <r>   -0.9478    1.0000 </r>
       <r>   -0.9418    1.0000 </r>
       <r>   -0.2446    1.0000 </r>
       <r>   -0.1677    1.0000 </r>
       <r>   -0.1639    1.0000 </r>
       <r>   -0.1616    1.0000 </r>
       <r>   -0.1605    1.0000 </r>
       <r>   -0.1558    1.0000 </r>
       <r>   -0.1513    1.0000 </r>
       <r>    0.7097    1.0000 </r>
       <r>    0.7137    1.0000 </r>
       <r>    0.7195    1.0000 </r>
       <r>    1.0430    1.0000 </r>
       <r>    1.0469    1.0000 </r>
       <r>    1.0514    1.0000 </r>
       <r>    1.6520    1.0000 </r>
       <r>    1.6556    1.0000 </r>
       <r>    1.6561    1.0000 </r>
       <r>    1.6573    1.0000 </r>
       <r>    1.6592    1.0000 </r>
       <r>    1.6614    1.0000 </r>
       <r>    1.7136    1.0000 </r>
       <r>    1.7157    1.0000 </r>
       <r>    1.7191    1.0000 </r>
       <r>    2.2654    1.0000 </r>
       <r>    2.2679    1.0000 </r>
       <r>    2.2699    1.0000 </r>
       <r>    2.3657    1.0000 </r>
       <r>    2.3671    1.0000 </r>
       <r>    2.3695    1.0000 </r>
       <r>    2.3721    1.0000 </r>
       <r>    2.3745    1.0000 </r>
       <r>    2.3760    1.0000 </r>
       <r>    2.4214    1.0000 </r>
       <r>    2.4248    1.0000 </r>
       <r>    2.4289    1.0000 </r>
       <r>    2.7307    1.0000 </r>
       <r>    2.7320    1.0000 </r>
       <r>    2.7342    1.0000 </r>
       <r>    2.7345    1.0000 </r>
       <r>    2.7373    1.0000 </r>
       <r>    2.7408    1.0000 </r>
       <r>    2.9967    1.0000 </r>
       <r>    2.9990    1.0000 </r>
       <r>    3.0013    1.0000 </r>
       <r>    3.0096    1.0000 </r>
       <r>    3.0141    1.0000 </r>
       <r>    3.0176    1.0000 </r>
       <r>    3.3592    1.0000 </r>
       <r>    3.3623    1.0000 </r>
       <r>    3.3638    1.0000 </r>
       <r>    3.3810    1.0000 </r>
       <r>    3.3843    1.0000 </r>
       <r>    3.3883    1.0000 </r>
       <r>    3.4635    1.0000 </r>
       <r>    3.4661    1.0000 </r>
       <r>    3.4704    1.0000 </r>
       <r>    3.7347    1.0000 </r>
       <r>    3.7391    1.0000 </r>
       <r>    3.7405    1.0000 </r>
       <r>    3.7414    1.0000 </r>
       <r>    3.7430    1.0000 </r>
       <r>    3.7490    1.0000 </r>
       <r>    3.7772    1.0000 </r>
       <r>    3.7800    1.0000 </r>
       <r>    3.7849    1.0000 </r>
       <r>    4.0406    1.0000 </r>
       <r>    4.0947    1.0000 </r>
       <r>    4.0976    1.0000 </r>
       <r>    4.1014    1.0000 </r>
       <r>    4.3374    1.0000 </r>
       <r>    4.3404    1.0000 </r>
       <r>    4.3451    1.0000 </r>
       <r>    4.4019    1.0000 </r>
       <r>    4.4053    1.0000 </r>
       <r>    4.4108    1.0000 </r>
       <r>    4.5588    1.0000 </r>
       <r>    4.5670    1.0000 </r>
       <r>    4.8652    1.0000 </r>
       <r>    4.8694    1.0000 </r>
       <r>    4.8755    1.0000 </r>
       <r>    5.3451    1.0000 </r>
       <r>    5.3544    1.0000 </r>
       <r>    6.5604    0.0000 </r>
       <r>    6.5628    0.0000 </r>
       <r>    6.5670    0.0000 </r>
       <r>    6.9995    0.0000 </r>
       <r>    7.0042    0.0000 </r>
       <r>    7.0096    0.0000 </r>
       <r>    7.2337    0.0000 </r>
       <r>    7.4862    0.0000 </r>
       <r>    7.4908    0.0000 </r>
       <r>    7.4952    0.0000 </r>
       <r>    7.6158    0.0000 </r>
       <r>    7.6196    0.0000 </r>
       <r>    7.6233    0.0000 </r>
       <r>    7.7761    0.0000 </r>
       <r>    7.7800    0.0000 </r>
       <r>    7.7831    0.0000 </r>
       <r>    7.7984    0.0000 </r>
       <r>    7.8000    0.0000 </r>
       <r>    7.8052    0.0000 </r>
       <r>    8.0252    0.0000 </r>
       <r>    8.0277    0.0000 </r>
       <r>    8.0299    0.0000 </r>
       <r>    8.0306    0.0000 </r>
       <r>    8.0329    0.0000 </r>
       <r>    8.0370    0.0000 </r>
       <r>    8.0812    0.0000 </r>
       <r>    8.2919    0.0000 </r>
       <r>    8.2949    0.0000 </r>
       <r>    8.2982    0.0000 </r>
       <r>    8.4944    0.0000 </r>
       <r>    8.4985    0.0000 </r>
       <r>    8.5013    0.0000 </r>
       <r>    8.5028    0.0000 </r>
       <r>    8.5082    0.0000 </r>
       <r>    8.5208    0.0000 </r>
       <r>    8.5411    0.0000 </r>
      </set>
      <set comment="kpoint 4">
       <r>   -5.9932    1.0000 </r>
       <r>   -5.4676    1.0000 </r>
       <r>   -5.4644    1.0000 </r>
       <r>   -5.4619    1.0000 </r>
       <r>   -4.9685    1.0000 </r>
       <r>   -4.9654    1.0000 </r>
       <r>   -4.9628    1.0000 </r>
       <r>   -4.5332    1.0000 </r>
       <r>   -4.4360    1.0000 </r>
       <r>   -4.4325    1.0000 </r>
       <r>   -4.4298    1.0000 </r>
       <r>   -4.0221    1.0000 </r>
       <r>   -4.0192    1.0000 </r>
       <r>   -4.0177    1.0000 </r>
       <r>   -4.0168    1.0000 </r>
       <r>   -4.0127    1.0000 </r>
       <r>   -4.0075    1.0000 </r>
       <r>   -3.8270    1.0000 </r>
       <r>   -3.8249    1.0000 </r>
       <r>   -3.8190    1.0000 </r>
       <r>   -3.3348    1.0000 </r>
       <r>   -3.3293    1.0000 </r>
       <r>   -3.3263    1.0000 </r>
       <r>   -2.9623    1.0000 </r>
       <r>   -2.9607    1.0000 </r>
       <r>   -2.9536    1.0000 </r>
       <r>   -2.7956    1.0000 </r>
       <r>   -2.7941    1.0000 </r>
       <r>   -2.7926    1.0000 </r>
       <r>   -2.7915    1.0000 </r>
       <r>   -2.7864    1.0000 </r>
       <r>   -2.7830    1.0000 </r>
       <r>   -1.2552    1.0000 </r>
       <r>   -1.2523    1.0000 </r>
       <r>   -1.2510    1.0000 </r>
       <r>   -1.2491    1.0000 </r>
       <r>   -1.2462    1.0000 </r>
       <r>   -1.2422    1.0000 </r>
       <r>   -1.1560    1.0000 </r>
       <r>   -1.1536    1.0000 </r>
       <r>   -1.1460    1.0000 </r>
       <r>   -1.0385    1.0000 </r>
       <r>   -1.0334    1.0000 </r>
       <r>   -1.0311    1.0000 </r>
       <r>   -0.9481    1.0000 </r>
       <r>   -0.9449    1.0000 </r>
       <r>   -0.9348    1.0000 </r>
       <r>   -0.2411    1.0000 </r>
       <r>   -0.1690    1.0000 </r>
       <r>   -0.1650    1.0000 </r>
       <r>   -0.1629    1.0000 </r>
       <r>   -0.1604    1.0000 </r>
       <r>   -0.1588    1.0000 </r>
       <r>   -0.1531    1.0000 </r>
       <r>    0.7119    1.0000 </r>
       <r>    0.7145    1.0000 </r>
       <r>    0.7233    1.0000 </r>
       <r>    1.0441    1.0000 </r>
       <r>    1.0466    1.0000 </r>
       <r>    1.0505    1.0000 </r>
       <r>    1.6531    1.0000 </r>
       <r>    1.6543    1.0000 </r>
       <r>    1.6565    1.0000 </r>
       <r>    1.6576    1.0000 </r>
       <r>    1.6585    1.0000 </r>
       <r>    1.6608    1.0000 </r>
       <r>    1.7124    1.0000 </r>
       <r>    1.7152    1.0000 </r>
       <r>    1.7175    1.0000 </r>
       <r>    2.2676    1.0000 </r>
       <r>    2.2688    1.0000 </r>
       <r>    2.2723    1.0000 </r>
       <r>    2.3643    1.0000 </r>
       <r>    2.3661    1.0000 </r>
       <r>    2.3689    1.0000 </r>
       <r>    2.3705    1.0000 </r>
       <r>    2.3723    1.0000 </r>
       <r>    2.3752    1.0000 </r>
       <r>    2.4201    1.0000 </r>
       <r>    2.4231    1.0000 </r>
       <r>    2.4257    1.0000 </r>
       <r>    2.7300    1.0000 </r>
       <r>    2.7340    1.0000 </r>
       <r>    2.7345    1.0000 </r>
       <r>    2.7353    1.0000 </r>
       <r>    2.7367    1.0000 </r>
       <r>    2.7400    1.0000 </r>
       <r>    2.9964    1.0000 </r>
       <r>    2.9975    1.0000 </r>
       <r>    3.0000    1.0000 </r>
       <r>    3.0100    1.0000 </r>
       <r>    3.0123    1.0000 </r>
       <r>    3.0152    1.0000 </r>
       <r>    3.3611    1.0000 </r>
       <r>    3.3638    1.0000 </r>
       <r>    3.3659    1.0000 </r>
       <r>    3.3842    1.0000 </r>
       <r>    3.3867    1.0000 </r>
       <r>    3.3919    1.0000 </r>
       <r>    3.4629    1.0000 </r>
       <r>    3.4660    1.0000 </r>
       <r>    3.4676    1.0000 </r>
       <r>    3.7394    1.0000 </r>
       <r>    3.7407    1.0000 </r>
       <r>    3.7411    1.0000 </r>
       <r>    3.7429    1.0000 </r>
       <r>    3.7467    1.0000 </r>
       <r>    3.7523    1.0000 </r>
       <r>    3.7765    1.0000 </r>
       <r>    3.7798    1.0000 </r>
       <r>    3.7822    1.0000 </r>
       <r>    4.0442    1.0000 </r>
       <r>    4.0941    1.0000 </r>
       <r>    4.0950    1.0000 </r>
       <r>    4.0984    1.0000 </r>
       <r>    4.3362    1.0000 </r>
       <r>    4.3399    1.0000 </r>
       <r>    4.3414    1.0000 </r>
       <r>    4.4059    1.0000 </r>
       <r>    4.4076    1.0000 </r>
       <r>    4.4176    1.0000 </r>
       <r>    4.5593    1.0000 </r>
       <r>    4.5641    1.0000 </r>
       <r>    4.8637    1.0000 </r>
       <r>    4.8682    1.0000 </r>
       <r>    4.8705    1.0000 </r>
       <r>    5.3448    1.0000 </r>
       <r>    5.3501    1.0000 </r>
       <r>    6.5591    0.0000 </r>
       <r>    6.5612    0.0000 </r>
       <r>    6.5650    0.0000 </r>
       <r>    7.0005    0.0000 </r>
       <r>    7.0028    0.0000 </r>
       <r>    7.0078    0.0000 </r>
       <r>    7.2323    0.0000 </r>
       <r>    7.4862    0.0000 </r>
       <r>    7.4884    0.0000 </r>
       <r>    7.4929    0.0000 </r>
       <r>    7.6164    0.0000 </r>
       <r>    7.6223    0.0000 </r>
       <r>    7.6241    0.0000 </r>
       <r>    7.7756    0.0000 </r>
       <r>    7.7805    0.0000 </r>
       <r>    7.7821    0.0000 </r>
       <r>    7.7982    0.0000 </r>
       <r>    7.7999    0.0000 </r>
       <r>    7.8032    0.0000 </r>
       <r>    8.0265    0.0000 </r>
       <r>    8.0294    0.0000 </r>
       <r>    8.0303    0.0000 </r>
       <r>    8.0328    0.0000 </r>
       <r>    8.0358    0.0000 </r>
       <r>    8.0385    0.0000 </r>
       <r>    8.0791    0.0000 </r>
       <r>    8.2929    0.0000 </r>
       <r>    8.2941    0.0000 </r>
       <r>    8.2973    0.0000 </r>
       <r>    8.4937    0.0000 </r>
       <r>    8.5010    0.0000 </r>
       <r>    8.5029    0.0000 </r>
       <r>    8.5052    0.0000 </r>
       <r>    8.5099    0.0000 </r>
       <r>    8.5122    0.0000 </r>
       <r>    8.5416    0.0000 </r>
      </set>
     </set>
    </set>
   </array>
  </eigenvalues>
  <separator name="orbital magnetization" >
   <v name="MAGDIPOLOUT">      0.00000000      0.00000000      0.00000000</v>
  </separator>
  <dos>
   <i name="efermi">      5.59729328 </i>
   <total>
    <array>
     <dimension dim="1">gridpoints</dimension>
     <dimension dim="2">spin</dimension>
     <field>energy</field>
     <field>total</field>
     <field>integrated</field>
     <set>
      <set comment="spin 1">
       <r>    -6.7202     0.0000     0.0000 </r>
       <r>    -6.6668     0.0000     0.0000 </r>
       <r>    -6.6135     0.0000     0.0000 </r>
       <r>    -6.5602     0.0000     0.0000 </r>
       <r>    -6.5069     0.0000     0.0000 </r>
       <r>    -6.4536     0.0000     0.0000 </r>
       <r>    -6.4003     0.0000     0.0000 </r>
       <r>    -6.3470     0.0000     0.0000 </r>
       <r>    -6.2937     0.0000     0.0000 </r>
       <r>    -6.2404     0.0000     0.0000 </r>
       <r>    -6.1871     0.0000     0.0000 </r>
       <r>    -6.1338     0.0013     0.0001 </r>
       <r>    -6.0805     0.2528     0.0135 </r>
       <r>    -6.0271     6.0563     0.3364 </r>
       <r>    -5.9738    20.2382     1.4152 </r>
       <r>    -5.9205    10.2199     1.9600 </r>
       <r>    -5.8672     0.7426     1.9996 </r>
       <r>    -5.8139     0.0069     2.0000 </r>
       <r>    -5.7606     0.0000     2.0000 </r>
       <r>    -5.7073     0.0000     2.0000 </r>
       <r>    -5.6540     0.0000     2.0000 </r>
       <r>    -5.6007     0.0070     2.0004 </r>
       <r>    -5.5474     1.1028     2.0592 </r>
       <r>    -5.4941    21.8607     3.2245 </r>
       <r>    -5.4408    61.5479     6.5055 </r>
       <r>    -5.3875    26.3967     7.9126 </r>
       <r>    -5.3341     1.6259     7.9993 </r>
       <r>    -5.2808     0.0128     8.0000 </r>
       <r>    -5.2275     0.0000     8.0000 </r>
       <r>    -5.1742     0.0000     8.0000 </r>
       <r>    -5.1209     0.0006     8.0000 </r>
       <r>    -5.0676     0.2221     8.0119 </r>
       <r>    -5.0143     9.2642     8.5057 </r>
       <r>    -4.9610    52.5173    11.3053 </r>
       <r>    -4.9077    44.7781    13.6923 </r>
       <r>    -4.8544     5.6755    13.9949 </r>
       <r>    -4.8011     0.0958    14.0000 </r>
       <r>    -4.7478     0.0002    14.0000 </r>
       <r>    -4.6945     0.0001    14.0000 </r>
       <r>    -4.6411     0.0388    14.0021 </r>
       <r>    -4.5878     2.1369    14.1160 </r>
       <r>    -4.5345    15.8421    14.9605 </r>
       <r>    -4.4812    26.2018    16.3573 </r>
       <r>    -4.4279    55.2431    19.3022 </r>
       <r>    -4.3746    44.8304    21.6920 </r>
       <r>    -4.3213     5.6822    21.9949 </r>
       <r>    -4.2680     0.0961    22.0000 </r>
       <r>    -4.2147     0.0002    22.0000 </r>
       <r>    -4.1614     0.0053    22.0003 </r>
       <r>    -4.1081     1.1345    22.0608 </r>
       <r>    -4.0548    30.6417    23.6942 </r>
       <r>    -4.0015   117.5000    29.9579 </r>
       <r>    -3.9481    69.6358    33.6700 </r>
       <r>    -3.8948     8.7617    34.1371 </r>
       <r>    -3.8415    32.7392    35.8823 </r>
       <r>    -3.7882    59.8124    39.0708 </r>
       <r>    -3.7349    16.7645    39.9645 </r>
       <r>    -3.6816     0.6629    39.9998 </r>
       <r>    -3.6283     0.0033    40.0000 </r>
       <r>    -3.5750     0.0000    40.0000 </r>
       <r>    -3.5217     0.0000    40.0000 </r>
       <r>    -3.4684     0.0045    40.0002 </r>
       <r>    -3.4151     0.8163    40.0438 </r>
       <r>    -3.3618    18.6884    41.0400 </r>
       <r>    -3.3084    60.6770    44.2746 </r>
       <r>    -3.2551    30.1622    45.8824 </r>
       <r>    -3.2018     2.1847    45.9989 </r>
       <r>    -3.1485     0.0205    46.0000 </r>
       <r>    -3.0952     0.0072    46.0004 </r>
       <r>    -3.0419     1.1120    46.0597 </r>
       <r>    -2.9886    21.8375    47.2238 </r>
       <r>    -2.9353    61.4224    50.4981 </r>
       <r>    -2.8820    27.6900    51.9742 </r>
       <r>    -2.8287    32.9162    53.7289 </r>
       <r>    -2.7754   117.8756    60.0126 </r>
       <r>    -2.7221    68.7540    63.6777 </r>
       <r>    -2.6688     5.9771    63.9963 </r>
       <r>    -2.6154     0.0692    64.0000 </r>
       <r>    -2.5621     0.0001    64.0000 </r>
       <r>    -2.5088     0.0000    64.0000 </r>
       <r>    -2.4555     0.0000    64.0000 </r>
       <r>    -2.4022     0.0000    64.0000 </r>
       <r>    -2.3489     0.0000    64.0000 </r>
       <r>    -2.2956     0.0000    64.0000 </r>
       <r>    -2.2423     0.0000    64.0000 </r>
       <r>    -2.1890     0.0000    64.0000 </r>
       <r>    -2.1357     0.0000    64.0000 </r>
       <r>    -2.0824     0.0000    64.0000 </r>
       <r>    -2.0291     0.0000    64.0000 </r>
       <r>    -1.9758     0.0000    64.0000 </r>
       <r>    -1.9224     0.0000    64.0000 </r>
       <r>    -1.8691     0.0000    64.0000 </r>
       <r>    -1.8158     0.0000    64.0000 </r>
       <r>    -1.7625     0.0000    64.0000 </r>
       <r>    -1.7092     0.0000    64.0000 </r>
       <r>    -1.6559     0.0000    64.0000 </r>
       <r>    -1.6026     0.0000    64.0000 </r>
       <r>    -1.5493     0.0000    64.0000 </r>
       <r>    -1.4960     0.0000    64.0000 </r>
       <r>    -1.4427     0.0000    64.0000 </r>
       <r>    -1.3894     0.0094    64.0005 </r>
       <r>    -1.3361     1.6369    64.0878 </r>
       <r>    -1.2828    36.9469    66.0573 </r>
       <r>    -1.2294   122.0636    72.5643 </r>
       <r>    -1.1761    86.8159    77.1922 </r>
       <r>    -1.1228    66.7497    80.7505 </r>
       <r>    -1.0695    39.1233    82.8361 </r>
       <r>    -1.0162    63.5591    86.2243 </r>
       <r>    -0.9629    67.1525    89.8041 </r>
       <r>    -0.9096    61.7961    93.0983 </r>
       <r>    -0.8563    16.2618    93.9652 </r>
       <r>    -0.8030     0.6503    93.9998 </r>
       <r>    -0.7497     0.0034    94.0000 </r>
       <r>    -0.6964     0.0000    94.0000 </r>
       <r>    -0.6431     0.0000    94.0000 </r>
       <r>    -0.5897     0.0000    94.0000 </r>
       <r>    -0.5364     0.0000    94.0000 </r>
       <r>    -0.4831     0.0000    94.0000 </r>
       <r>    -0.4298     0.0000    94.0000 </r>
       <r>    -0.3765     0.0037    94.0002 </r>
       <r>    -0.3232     0.4954    94.0266 </r>
       <r>    -0.2699     8.6581    94.4882 </r>
       <r>    -0.2166    33.1330    96.2544 </r>
       <r>    -0.1633    99.4081   101.5536 </r>
       <r>    -0.1100   102.8375   107.0357 </r>
       <r>    -0.0567    17.6621   107.9772 </r>
       <r>    -0.0034     0.4264   107.9999 </r>
       <r>     0.0499     0.0013   108.0000 </r>
       <r>     0.1033     0.0000   108.0000 </r>
       <r>     0.1566     0.0000   108.0000 </r>
       <r>     0.2099     0.0000   108.0000 </r>
       <r>     0.2632     0.0000   108.0000 </r>
       <r>     0.3165     0.0000   108.0000 </r>
       <r>     0.3698     0.0000   108.0000 </r>
       <r>     0.4231     0.0000   108.0000 </r>
       <r>     0.4764     0.0000   108.0000 </r>
       <r>     0.5297     0.0000   108.0000 </r>
       <r>     0.5830     0.0130   108.0007 </r>
       <r>     0.6363     1.6073   108.0864 </r>
       <r>     0.6896    25.9407   109.4692 </r>
       <r>     0.7429    61.2827   112.7361 </r>
       <r>     0.7963    22.4982   113.9354 </r>
       <r>     0.8496     1.2035   113.9996 </r>
       <r>     0.9029     0.0111   114.0001 </r>
       <r>     0.9562     0.5817   114.0312 </r>
       <r>     1.0095    15.6891   114.8675 </r>
       <r>     1.0628    59.2544   118.0262 </r>
       <r>     1.1161    34.1154   119.8448 </r>
       <r>     1.1694     2.8788   119.9983 </r>
       <r>     1.2227     0.0317   120.0000 </r>
       <r>     1.2760     0.0000   120.0000 </r>
       <r>     1.3293     0.0000   120.0000 </r>
       <r>     1.3826     0.0000   120.0000 </r>
       <r>     1.4359     0.0000   120.0000 </r>
       <r>     1.4893     0.0003   120.0000 </r>
       <r>     1.5426     0.1420   120.0076 </r>
       <r>     1.5959     9.4848   120.5132 </r>
       <r>     1.6492    86.7714   125.1388 </r>
       <r>     1.7025   145.7271   132.9072 </r>
       <r>     1.7558    80.1532   137.1800 </r>
       <r>     1.8091    14.8928   137.9739 </r>
       <r>     1.8624     0.4879   137.9999 </r>
       <r>     1.9157     0.0020   138.0000 </r>
       <r>     1.9690     0.0000   138.0000 </r>
       <r>     2.0223     0.0000   138.0000 </r>
       <r>     2.0756     0.0000   138.0000 </r>
       <r>     2.1290     0.0051   138.0003 </r>
       <r>     2.1823     0.8881   138.0476 </r>
       <r>     2.2356    19.6217   139.0936 </r>
       <r>     2.2889    63.4598   142.4765 </r>
       <r>     2.3422    75.0419   146.4768 </r>
       <r>     2.3955   146.5454   154.2888 </r>
       <r>     2.4488   113.0861   160.3172 </r>
       <r>     2.5021    29.8473   161.9083 </r>
       <r>     2.5554     1.7062   161.9993 </r>
       <r>     2.6087     0.0561   162.0023 </r>
       <r>     2.6620     4.4623   162.2401 </r>
       <r>     2.7153    60.8954   165.4863 </r>
       <r>     2.7686   121.1908   171.9468 </r>
       <r>     2.8220    36.9154   173.9146 </r>
       <r>     2.8753     1.6244   174.0012 </r>
       <r>     2.9286     3.5142   174.1886 </r>
       <r>     2.9819    52.5634   176.9906 </r>
       <r>     3.0352   121.0381   183.4429 </r>
       <r>     3.0885    45.3518   185.8605 </r>
       <r>     3.1418     2.5967   185.9989 </r>
       <r>     3.1951     0.0203   186.0000 </r>
       <r>     3.2484     0.0849   186.0045 </r>
       <r>     3.3017     6.1060   186.3300 </r>
       <r>     3.3550    64.5512   189.7711 </r>
       <r>     3.4083   121.0370   196.2233 </r>
       <r>     3.4616    81.3596   200.5604 </r>
       <r>     3.5150    54.7969   203.4815 </r>
       <r>     3.5683     9.4935   203.9876 </r>
       <r>     3.6216     0.3216   204.0048 </r>
       <r>     3.6749     7.1500   204.3859 </r>
       <r>     3.7282    80.9390   208.7006 </r>
       <r>     3.7815   164.9337   217.4929 </r>
       <r>     3.8348    76.3853   221.5648 </r>
       <r>     3.8881     8.0209   221.9924 </r>
       <r>     3.9414     0.2409   222.0052 </r>
       <r>     3.9947     3.7975   222.2077 </r>
       <r>     4.0480    26.9767   223.6457 </r>
       <r>     4.1013    65.5611   227.1406 </r>
       <r>     4.1546    47.4237   229.6687 </r>
       <r>     4.2080     6.1164   229.9948 </r>
       <r>     4.2613     1.4841   230.0739 </r>
       <r>     4.3146    24.8808   231.4002 </r>
       <r>     4.3679    77.2174   235.5165 </r>
       <r>     4.4212    82.6490   239.9223 </r>
       <r>     4.4745    36.3434   241.8597 </r>
       <r>     4.5278    14.7258   242.6447 </r>
       <r>     4.5811    40.1308   244.7840 </r>
       <r>     4.6344    21.1575   245.9119 </r>
       <r>     4.6877     1.6365   245.9991 </r>
       <r>     4.7410     0.0325   246.0009 </r>
       <r>     4.7943     1.8541   246.0997 </r>
       <r>     4.8477    27.8687   247.5853 </r>
       <r>     4.9010    61.1330   250.8442 </r>
       <r>     4.9543    20.6718   251.9462 </r>
       <r>     5.0076     1.0038   251.9997 </r>
       <r>     5.0609     0.0062   252.0000 </r>
       <r>     5.1142     0.0000   252.0000 </r>
       <r>     5.1675     0.0000   252.0000 </r>
       <r>     5.2208     0.0109   252.0006 </r>
       <r>     5.2741     1.2517   252.0673 </r>
       <r>     5.3274    18.6593   253.0620 </r>
       <r>     5.3807    40.7185   255.2326 </r>
       <r>     5.4340    13.7259   255.9643 </r>
       <r>     5.4873     0.6653   255.9998 </r>
       <r>     5.5407     0.0041   256.0000 </r>
       <r>     5.5940     0.0000   256.0000 </r>
       <r>     5.6473     0.0000   256.0000 </r>
       <r>     5.7006     0.0000   256.0000 </r>
       <r>     5.7539     0.0000   256.0000 </r>
       <r>     5.8072     0.0000   256.0000 </r>
       <r>     5.8605     0.0000   256.0000 </r>
       <r>     5.9138     0.0000   256.0000 </r>
       <r>     5.9671     0.0000   256.0000 </r>
       <r>     6.0204     0.0000   256.0000 </r>
       <r>     6.0737     0.0000   256.0000 </r>
       <r>     6.1270     0.0000   256.0000 </r>
       <r>     6.1803     0.0000   256.0000 </r>
       <r>     6.2337     0.0000   256.0000 </r>
       <r>     6.2870     0.0000   256.0000 </r>
       <r>     6.3403     0.0000   256.0000 </r>
       <r>     6.3936     0.0001   256.0000 </r>
       <r>     6.4469     0.0573   256.0031 </r>
       <r>     6.5002     4.1515   256.2244 </r>
       <r>     6.5535    39.7099   258.3412 </r>
       <r>     6.6068    56.2039   261.3373 </r>
       <r>     6.6601    12.0716   261.9808 </r>
       <r>     6.7134     0.3582   261.9999 </r>
       <r>     6.7667     0.0013   262.0000 </r>
       <r>     6.8200     0.0000   262.0000 </r>
       <r>     6.8733     0.0128   262.0007 </r>
       <r>     6.9267     1.6060   262.0863 </r>
       <r>     6.9800    26.0539   263.4752 </r>
       <r>     7.0333    61.3940   266.7480 </r>
       <r>     7.0866    22.3099   267.9372 </r>
       <r>     7.1399     1.3191   268.0076 </r>
       <r>     7.1932     4.5841   268.2519 </r>
       <r>     7.2465    19.3280   269.2823 </r>
       <r>     7.2998    12.3071   269.9383 </r>
       <r>     7.3531     1.1492   269.9996 </r>
       <r>     7.4064     1.0032   270.0531 </r>
       <r>     7.4597    20.5784   271.1501 </r>
       <r>     7.5130    61.3127   274.4185 </r>
       <r>     7.5664    35.3334   276.3020 </r>
       <r>     7.6197    50.7199   279.0058 </r>
       <r>     7.6730    48.8700   281.6110 </r>
       <r>     7.7263    16.5084   282.4910 </r>
       <r>     7.7796    77.3218   286.6129 </r>
       <r>     7.8329   110.0758   292.4808 </r>
       <r>     7.8862    27.4195   293.9424 </r>
       <r>     7.9395     2.2623   294.0630 </r>
       <r>     7.9928    31.6289   295.7491 </r>
       <r>     8.0461   123.8933   302.3536 </r>
       <r>     8.0994    88.5453   307.0737 </r>
       <r>     8.1527    16.4932   307.9530 </r>
       <r>     8.2060     1.5551   308.0359 </r>
       <r>     8.2594    17.0436   308.9444 </r>
       <r>     8.3127    60.0648   312.1463 </r>
       <r>     8.3660    32.2429   313.8651 </r>
       <r>     8.4193     4.5844   314.1095 </r>
       <r>     8.4726    41.4233   316.3177 </r>
       <r>     8.5259   131.1637   323.3098 </r>
       <r>     8.5792    77.9468   327.4649 </r>
       <r>     8.6325     9.7877   327.9867 </r>
       <r>     8.6858     0.2484   327.9999 </r>
       <r>     8.7391     0.0010   328.0000 </r>
       <r>     8.7924     0.0000   328.0000 </r>
       <r>     8.8457     0.0000   328.0000 </r>
       <r>     8.8990     0.0000   328.0000 </r>
       <r>     8.9524     0.0000   328.0000 </r>
       <r>     9.0057     0.0000   328.0000 </r>
       <r>     9.0590     0.0000   328.0000 </r>
       <r>     9.1123     0.0000   328.0000 </r>
       <r>     9.1656     0.0000   328.0000 </r>
       <r>     9.2189     0.0000   328.0000 </r>
       <r>     9.2722     0.0000   328.0000 </r>
      </set>
     </set>
    </array>
   </total>
  </dos>
 </calculation>
 <structure name="finalpos" >
  <crystal>
   <varray name="basis" >
    <v>      10.93252578       0.00000000       0.00000000 </v>
    <v>       0.00000000      10.93252578       0.00000000 </v>
    <v>       0.00000000       0.00000000      10.93252578 </v>
   </varray>
   <i name="volume">   1306.65679237 </i>
   <varray name="rec_basis" >
    <v>       0.09147017       0.00000000       0.00000000 </v>
    <v>       0.00000000       0.09147017       0.00000000 </v>
    <v>       0.00000000       0.00000000       0.09147017 </v>
   </varray>
  </crystal>
  <varray name="positions" >
   <v>       0.44024411       0.43750000       0.43750000 </v>
   <v>       0.93750000       0.43750000       0.43750000 </v>
   <v>       0.43750000       0.93750000       0.43750000 </v>
   <v>       0.93750000       0.93750000       0.43750000 </v>
   <v>       0.43750000       0.43750000       0.93750000 </v>
   <v>       0.93750000       0.43750000       0.93750000 </v>
   <v>       0.43750000       0.93750000       0.93750000 </v>
   <v>       0.93750000       0.93750000       0.93750000 </v>
   <v>       0.43750000       0.18750000       0.18750000 </v>
   <v>       0.93750000       0.18750000       0.18750000 </v>
   <v>       0.43750000       0.68750000       0.18750000 </v>
   <v>       0.93750000       0.69024411       0.18750000 </v>
   <v>       0.43750000       0.18750000       0.68750000 </v>
   <v>       0.93750000       0.18750000       0.68750000 </v>
   <v>       0.43750000       0.68750000       0.68750000 </v>
   <v>       0.93750000       0.68750000       0.68750000 </v>
   <v>       0.18750000       0.43750000       0.18750000 </v>
   <v>       0.68750000       0.43750000       0.18750000 </v>
   <v>       0.18750000       0.93750000       0.18750000 </v>
   <v>       0.68750000       0.93750000       0.18750000 </v>
   <v>       0.18750000       0.43750000       0.68750000 </v>
   <v>       0.68750000       0.43750000       0.68750000 </v>
   <v>       0.18750000       0.93750000       0.68750000 </v>
   <v>       0.68750000       0.93750000       0.68750000 </v>
   <v>       0.18750000       0.18750000       0.43750000 </v>
   <v>       0.68750000       0.18750000       0.43750000 </v>
   <v>       0.18750000       0.68750000       0.43750000 </v>
   <v>       0.68750000       0.68750000       0.43750000 </v>
   <v>       0.18750000       0.18750000       0.93750000 </v>
   <v>       0.68750000       0.18750000       0.93750000 </v>
   <v>       0.18750000       0.68750000       0.93750000 </v>
   <v>       0.68750000       0.68750000       0.93750000 </v>
   <v>       0.06250000       0.06250000       0.06250000 </v>
   <v>       0.56250000       0.06250000       0.06250000 </v>
   <v>       0.06250000       0.56250000       0.06250000 </v>
   <v>       0.56250000       0.56250000       0.06250000 </v>
   <v>       0.06250000       0.06250000       0.56250000 </v>
   <v>       0.56250000       0.06250000       0.56250000 </v>
   <v>       0.06250000       0.56250000       0.56250000 </v>
   <v>       0.56250000       0.56250000       0.56250000 </v>
   <v>       0.06250000       0.31250000       0.31250000 </v>
   <v>       0.56250000       0.31250000       0.31250000 </v>
   <v>       0.06250000       0.81250000       0.31250000 </v>
   <v>       0.56250000       0.81250000       0.31250000 </v>
   <v>       0.06250000       0.31250000       0.81250000 </v>
   <v>       0.56250000       0.31250000       0.81250000 </v>
   <v>       0.06250000       0.81250000       0.81250000 </v>
   <v>       0.56250000       0.81250000       0.81250000 </v>
   <v>       0.31250000       0.06250000       0.31250000 </v>
   <v>       0.81250000       0.06250000       0.31250000 </v>
   <v>       0.31250000       0.56250000       0.31250000 </v>
   <v>       0.81250000       0.56250000       0.31250000 </v>
   <v>       0.31250000       0.06250000       0.81250000 </v>
   <v>       0.81250000       0.06250000       0.81250000 </v>
   <v>       0.31250000       0.56250000       0.81250000 </v>
   <v>       0.81250000       0.56250000       0.81250000 </v>
   <v>       0.31250000       0.31250000       0.06250000 </v>
   <v>       0.81250000       0.31250000       0.06250000 </v>
   <v>       0.31250000       0.81250000       0.06250000 </v>
   <v>       0.81250000       0.81250000       0.06250000 </v>
   <v>       0.31250000       0.31250000       0.56250000 </v>
   <v>       0.81250000       0.31250000       0.56250000 </v>
   <v>       0.31250000       0.81250000       0.56250000 </v>
   <v>       0.81250000       0.81250000       0.56250000 </v>
  </varray>
 </structure>
</modeling>
