<?xml version="1.0" encoding="ISO-8859-1"?>
<modeling>
 <generator>
  <i name="program" type="string">vasp </i>
  <i name="version" type="string">5.4.1  </i>
  <i name="subversion" type="string">05Feb16 (build Mar 26 2016 11:58:25) complex                          parallel </i>
  <i name="platform" type="string">IFC91_ompi </i>
  <i name="date" type="string">2017 03 12 </i>
  <i name="time" type="string">12:13:57 </i>
 </generator>
 <incar>
  <i type="string" name="PREC">accurate</i>
  <i type="int" name="IALGO">    38</i>
  <i type="logical" name="ADDGRID"> T  </i>
  <i type="int" name="NELMIN">     5</i>
  <i type="int" name="IBRION">    -1</i>
  <i name="EDIFF">      0.00000001</i>
  <i name="ENCUT">    300.00000000</i>
  <i type="logical" name="LREAL"> F  </i>
  <i type="int" name="ISMEAR">     0</i>
  <i name="SIGMA">      0.05000000</i>
  <i type="logical" name="LWAVE"> F  </i>
  <i type="logical" name="LCHARG"> F  </i>
  <v type="int" name="KPOINT_BSE">    -1     0     0     0</v>
 </incar>
 <kpoints>
  <generation param="Monkhorst-Pack">
   <v type="int" name="divisions">       2        2        2 </v>
   <v name="usershift">      0.00000000       0.00000000       0.00000000 </v>
   <v name="genvec1">      0.50000000       0.00000000       0.00000000 </v>
   <v name="genvec2">      0.00000000       0.50000000       0.00000000 </v>
   <v name="genvec3">      0.00000000       0.00000000       0.50000000 </v>
   <v name="shift">      0.50000000       0.50000000       0.50000000 </v>
  </generation>
  <varray name="kpointlist" >
   <v>       0.25000000       0.25000000       0.25000000 </v>
   <v>      -0.25000000       0.25000000       0.25000000 </v>
   <v>       0.25000000      -0.25000000       0.25000000 </v>
   <v>      -0.25000000      -0.25000000       0.25000000 </v>
  </varray>
  <varray name="weights" >
   <v>       0.25000000 </v>
   <v>       0.25000000 </v>
   <v>       0.25000000 </v>
   <v>       0.25000000 </v>
  </varray>
 </kpoints>
 <parameters>
  <separator name="general" >
   <i type="string" name="SYSTEM">unknown system</i>
   <i type="logical" name="LCOMPAT"> F  </i>
  </separator>
  <separator name="electronic" >
   <i type="string" name="PREC">accura</i>
   <i name="ENMAX">    300.00000000</i>
   <i name="ENAUG">    322.06900000</i>
   <i name="EDIFF">      0.00000001</i>
   <i type="int" name="IALGO">    38</i>
   <i type="int" name="IWAVPR">    10</i>
   <i type="int" name="NBANDS">   164</i>
   <i name="NELECT">    256.00000000</i>
   <i type="int" name="TURBO">     0</i>
   <i type="int" name="IRESTART">     0</i>
   <i type="int" name="NREBOOT">     0</i>
   <i type="int" name="NMIN">     0</i>
   <i name="EREF">      0.00000000</i>
   <separator name="electronic smearing" >
    <i type="int" name="ISMEAR">     0</i>
    <i name="SIGMA">      0.05000000</i>
    <i name="KSPACING">      0.50000000</i>
    <i type="logical" name="KGAMMA"> T  </i>
   </separator>
   <separator name="electronic projectors" >
    <i type="logical" name="LREAL"> F  </i>
    <v name="ROPT">      0.00000000</v>
    <i type="int" name="LMAXPAW">  -100</i>
    <i type="int" name="LMAXMIX">     2</i>
    <i type="logical" name="NLSPLINE"> F  </i>
   </separator>
   <separator name="electronic startup" >
    <i type="int" name="ISTART">     0</i>
    <i type="int" name="ICHARG">     2</i>
    <i type="int" name="INIWAV">     1</i>
   </separator>
   <separator name="electronic spin" >
    <i type="int" name="ISPIN">     1</i>
    <i type="logical" name="LNONCOLLINEAR"> F  </i>
    <v name="MAGMOM">      1.00000000      1.00000000      1.00000000      1.00000000      1.00000000      1.00000000      1.00000000      1.00000000      1.00000000      1.00000000      1.00000000      1.00000000      1.00000000      1.00000000      1.00000000      1.00000000      1.00000000      1.00000000      1.00000000      1.00000000
      1.00000000      1.00000000      1.00000000      1.00000000      1.00000000      1.00000000      1.00000000      1.00000000      1.00000000      1.00000000      1.00000000      1.00000000      1.00000000      1.00000000      1.00000000      1.00000000      1.00000000      1.00000000      1.00000000      1.00000000
      1.00000000      1.00000000      1.00000000      1.00000000      1.00000000      1.00000000      1.00000000      1.00000000      1.00000000      1.00000000      1.00000000      1.00000000      1.00000000      1.00000000      1.00000000      1.00000000      1.00000000      1.00000000      1.00000000      1.00000000
      1.00000000      1.00000000      1.00000000      1.00000000</v>
    <i name="NUPDOWN">     -1.00000000</i>
    <i type="logical" name="LSORBIT"> F  </i>
    <v name="SAXIS">      0.00000000      0.00000000      1.00000000</v>
    <i type="logical" name="LSPIRAL"> F  </i>
    <v name="QSPIRAL">      0.00000000      0.00000000      0.00000000</v>
    <i type="logical" name="LZEROZ"> F  </i>
   </separator>
   <separator name="electronic exchange-correlation" >
    <i type="logical" name="LASPH"> F  </i>
    <i type="logical" name="LMETAGGA"> F  </i>
   </separator>
   <separator name="electronic convergence" >
    <i type="int" name="NELM">    60</i>
    <i type="int" name="NELMDL">    -5</i>
    <i type="int" name="NELMIN">     5</i>
    <i name="ENINI">    300.00000000</i>
    <separator name="electronic convergence detail" >
     <i type="logical" name="LDIAG"> T  </i>
     <i type="logical" name="LSUBROT"> F  </i>
     <i name="WEIMIN">      0.00000000</i>
     <i name="EBREAK">      0.00000000</i>
     <i name="DEPER">      0.30000000</i>
     <i type="int" name="NRMM">     4</i>
     <i name="TIME">      0.40000000</i>
    </separator>
   </separator>
   <separator name="electronic mixer" >
    <i name="AMIX">      0.40000000</i>
    <i name="BMIX">      1.00000000</i>
    <i name="AMIN">      0.10000000</i>
    <i name="AMIX_MAG">      1.60000000</i>
    <i name="BMIX_MAG">      1.00000000</i>
    <separator name="electronic mixer details" >
     <i type="int" name="IMIX">     4</i>
     <i type="logical" name="MIXFIRST"> F  </i>
     <i type="int" name="MAXMIX">   -45</i>
     <i name="WC">    100.00000000</i>
     <i type="int" name="INIMIX">     1</i>
     <i type="int" name="MIXPRE">     1</i>
     <i type="int" name="MREMOVE">     5</i>
    </separator>
   </separator>
   <separator name="electronic dipolcorrection" >
    <i type="logical" name="LDIPOL"> F  </i>
    <i type="logical" name="LMONO"> F  </i>
    <i type="int" name="IDIPOL">     0</i>
    <i name="EPSILON">      1.00000000</i>
    <v name="DIPOL">   -100.00000000   -100.00000000   -100.00000000</v>
    <i name="EFIELD">      0.00000000</i>
   </separator>
  </separator>
  <separator name="grids" >
   <i type="int" name="NGX">    64</i>
   <i type="int" name="NGY">    64</i>
   <i type="int" name="NGZ">    64</i>
   <i type="int" name="NGXF">   128</i>
   <i type="int" name="NGYF">   128</i>
   <i type="int" name="NGZF">   128</i>
   <i type="logical" name="ADDGRID"> T  </i>
  </separator>
  <separator name="ionic" >
   <i type="int" name="NSW">     0</i>
   <i type="int" name="IBRION">    -1</i>
   <i type="int" name="ISIF">     2</i>
   <i name="PSTRESS">      0.00000000</i>
   <i name="EDIFFG">      0.00000010</i>
   <i type="int" name="NFREE">     0</i>
   <i name="POTIM">      0.50000000</i>
   <i name="SMASS">     -3.00000000</i>
   <i name="SCALEE">      1.00000000</i>
  </separator>
  <separator name="ionic md" >
   <i name="TEBEG">      0.00010000</i>
   <i name="TEEND">      0.00010000</i>
   <i type="int" name="NBLOCK">     1</i>
   <i type="int" name="KBLOCK">     1</i>
   <i type="int" name="NPACO">   256</i>
   <i name="APACO">     16.00000000</i>
  </separator>
  <separator name="symmetry" >
   <i type="int" name="ISYM">     2</i>
   <i name="SYMPREC">      0.00001000</i>
  </separator>
  <separator name="dos" >
   <i type="logical" name="LORBIT"> F  </i>
   <v name="RWIGS">     -1.00000000</v>
   <i type="int" name="NEDOS">   301</i>
   <i name="EMIN">     10.00000000</i>
   <i name="EMAX">    -10.00000000</i>
   <i name="EFERMI">      0.00000000</i>
  </separator>
  <separator name="writing" >
   <i type="int" name="NWRITE">     2</i>
   <i type="logical" name="LWAVE"> F  </i>
   <i type="logical" name="LCHARG"> F  </i>
   <i type="logical" name="LPARD"> F  </i>
   <i type="logical" name="LVTOT"> F  </i>
   <i type="logical" name="LVHAR"> F  </i>
   <i type="logical" name="LELF"> F  </i>
   <i type="logical" name="LOPTICS"> F  </i>
   <v name="STM">      0.00000000      0.00000000      0.00000000      0.00000000      0.00000000      0.00000000      0.00000000</v>
  </separator>
  <separator name="performance" >
   <i type="int" name="NPAR">     4</i>
   <i type="int" name="NSIM">     4</i>
   <i type="int" name="NBLK">    -1</i>
   <i type="logical" name="LPLANE"> T  </i>
   <i type="logical" name="LSCALAPACK"> T  </i>
   <i type="logical" name="LSCAAWARE"> F  </i>
   <i type="logical" name="LSCALU"> F  </i>
   <i type="logical" name="LASYNC"> F  </i>
   <i type="logical" name="LORBITALREAL"> F  </i>
  </separator>
  <separator name="miscellaneous" >
   <i type="int" name="IDIOT">     3</i>
   <i type="logical" name="LMUSIC"> F  </i>
   <v name="POMASS">     28.08500000</v>
   <v name="DARWINR">      0.00000000</v>
   <v name="DARWINV">      1.00000000</v>
   <i type="logical" name="LCORR"> T  </i>
  </separator>
  <i type="logical" name="GGA_COMPAT"> T  </i>
  <i type="logical" name="LBERRY"> F  </i>
  <i type="int" name="ICORELEVEL">     0</i>
  <i type="logical" name="LDAU"> F  </i>
  <i type="int" name="I_CONSTRAINED_M">     0</i>
  <separator name="electronic exchange-correlation" >
   <i type="string" name="GGA">--</i>
   <i type="int" name="VOSKOWN">     0</i>
   <i type="logical" name="LHFCALC"> F  </i>
   <i type="string" name="PRECFOCK"></i>
   <i type="logical" name="LSYMGRAD"> F  </i>
   <i type="logical" name="LHFONE"> F  </i>
   <i type="logical" name="LRHFCALC"> F  </i>
   <i type="logical" name="LTHOMAS"> F  </i>
   <i type="logical" name="LMODELHF"> F  </i>
   <i name="ENCUT4O">     -1.00000000</i>
   <i type="int" name="EXXOEP">     0</i>
   <i type="int" name="FOURORBIT">     0</i>
   <i name="AEXX">      0.00000000</i>
   <i name="HFALPHA">      0.00000000</i>
   <i name="MCALPHA">      0.00000000</i>
   <i name="ALDAX">      1.00000000</i>
   <i name="AGGAX">      1.00000000</i>
   <i name="ALDAC">      1.00000000</i>
   <i name="AGGAC">      1.00000000</i>
   <i type="int" name="NKREDX">     1</i>
   <i type="int" name="NKREDY">     1</i>
   <i type="int" name="NKREDZ">     1</i>
   <i type="logical" name="SHIFTRED"> F  </i>
   <i type="logical" name="ODDONLY"> F  </i>
   <i type="logical" name="EVENONLY"> F  </i>
   <i type="int" name="LMAXFOCK">     0</i>
   <i type="int" name="NMAXFOCKAE">     0</i>
   <i type="logical" name="LFOCKAEDFT"> F  </i>
   <i name="HFSCREEN">      0.00000000</i>
   <i name="HFSCREENC">      0.00000000</i>
   <i type="int" name="NBANDSGWLOW">     0</i>
  </separator>
  <separator name="vdW DFT" >
   <i type="logical" name="LUSE_VDW"> F  </i>
   <i name="Zab_VDW">     -0.84910000</i>
   <i name="PARAM1">      0.12340000</i>
   <i name="PARAM2">      1.00000000</i>
   <i name="PARAM3">      0.00000000</i>
  </separator>
  <separator name="model GW" >
   <i type="int" name="MODEL_GW">     0</i>
   <i name="MODEL_EPS0">     12.24990743</i>
   <i name="MODEL_ALPHA">      1.00000000</i>
  </separator>
  <separator name="linear response parameters" >
   <i type="logical" name="LEPSILON"> F  </i>
   <i type="logical" name="LRPA"> F  </i>
   <i type="logical" name="LNABLA"> F  </i>
   <i type="logical" name="LVEL"> F  </i>
   <i type="int" name="KINTER">     0</i>
   <i name="CSHIFT">      0.10000000</i>
   <i name="OMEGAMAX">     -1.00000000</i>
   <i name="DEG_THRESHOLD">      0.00200000</i>
  </separator>
  <separator name="orbital magnetization" >
   <i type="logical" name="NUCIND"> F  </i>
   <v name="MAGPOS">      0.00000000      0.00000000      0.00000000</v>
   <i type="logical" name="LNICSALL"> T  </i>
   <i type="logical" name="ORBITALMAG"> F  </i>
   <i type="logical" name="LMAGBLOCH"> F  </i>
   <i type="logical" name="LCHIMAG"> F  </i>
   <i type="logical" name="LGAUGE"> T  </i>
   <i type="int" name="MAGATOM">     0</i>
   <v name="MAGDIPOL">      0.00000000      0.00000000      0.00000000</v>
   <v name="AVECCONST">      0.00000000      0.00000000      0.00000000</v>
  </separator>
  <separator name="response functions" >
   <i type="logical" name="LADDER"> F  </i>
   <i type="logical" name="LFXC"> F  </i>
   <i type="logical" name="LHARTREE"> T  </i>
   <i type="int" name="IBSE">     0</i>
   <v type="int" name="KPOINT">    -1     0     0     0</v>
   <i type="logical" name="LTCTE"> F  </i>
   <i type="logical" name="LTETE"> F  </i>
   <i type="logical" name="LTRIPLET"> F  </i>
   <i type="logical" name="LFXCEPS"> F  </i>
   <i type="logical" name="LFXHEG"> F  </i>
   <i type="int" name="NATURALO">     0</i>
   <i type="logical" name="L2ORDER"> F  </i>
   <i type="logical" name="LUSEW"> F  </i>
   <i name="ENCUTGW">     -2.00000000</i>
   <i name="ENCUTGWSOFT">     -2.00000000</i>
   <i name="ENCUTLF">     -1.00000000</i>
   <i type="int" name="LMAXMP2">    -1</i>
   <i name="SCISSOR">      0.00000000</i>
   <i type="int" name="NOMEGA">     0</i>
   <i type="int" name="NOMEGAR">     0</i>
   <i type="int" name="NBANDSGW">    -1</i>
   <i type="int" name="NBANDSO">    -1</i>
   <i type="int" name="NBANDSV">    -1</i>
   <i type="int" name="NELM">     1</i>
   <i type="int" name="NELMHF">     1</i>
   <i type="int" name="DIM">     3</i>
   <i type="int" name="ANTIRES">     0</i>
   <i name="OMEGAMAX">    -30.00000000</i>
   <i name="OMEGAMIN">    -30.00000000</i>
   <i name="OMEGATL">   -200.00000000</i>
   <i type="int" name="OMEGAGRID">     0</i>
   <i name="CSHIFT">     -0.10000000</i>
   <i type="logical" name="SELFENERGY"> F  </i>
   <i type="logical" name="LSPECTRAL"> F  </i>
   <i type="logical" name="LSPECTRALGW"> F  </i>
   <i type="logical" name="LSINGLES"> F  </i>
   <i type="logical" name="LFERMIGW"> F  </i>
   <i type="logical" name="ODDONLYGW"> F  </i>
   <i type="logical" name="EVENONLYGW"> F  </i>
   <i type="int" name="NKREDLFX">     1</i>
   <i type="int" name="NKREDLFY">     1</i>
   <i type="int" name="NKREDLFZ">     1</i>
   <i type="int" name="MAXMEM">  1800</i>
   <i type="int" name="TELESCOPE">     0</i>
   <i type="int" name="TAUPAR">     1</i>
   <i type="int" name="OMEGAPAR">    -1</i>
   <i name="LAMBDA">      1.00000000</i>
  </separator>
  <separator name="External order field" >
   <i name="OFIELD_KAPPA">      0.00000000</i>
   <v name="OFIELD_K">      0.00000000      0.00000000      0.00000000</v>
   <i name="OFIELD_Q6_NEAR">      0.00000000</i>
   <i name="OFIELD_Q6_FAR">      0.00000000</i>
   <i name="OFIELD_A">      0.00000000</i>
  </separator>
 </parameters>
 <atominfo>
  <atoms>      64 </atoms>
  <types>       1 </types>
  <array name="atoms" >
   <dimension dim="1">ion</dimension>
   <field type="string">element</field>
   <field type="int">atomtype</field>
   <set>
    <rc><c>Si</c><c>   1</c></rc>
    <rc><c>Si</c><c>   1</c></rc>
    <rc><c>Si</c><c>   1</c></rc>
    <rc><c>Si</c><c>   1</c></rc>
    <rc><c>Si</c><c>   1</c></rc>
    <rc><c>Si</c><c>   1</c></rc>
    <rc><c>Si</c><c>   1</c></rc>
    <rc><c>Si</c><c>   1</c></rc>
    <rc><c>Si</c><c>   1</c></rc>
    <rc><c>Si</c><c>   1</c></rc>
    <rc><c>Si</c><c>   1</c></rc>
    <rc><c>Si</c><c>   1</c></rc>
    <rc><c>Si</c><c>   1</c></rc>
    <rc><c>Si</c><c>   1</c></rc>
    <rc><c>Si</c><c>   1</c></rc>
    <rc><c>Si</c><c>   1</c></rc>
    <rc><c>Si</c><c>   1</c></rc>
    <rc><c>Si</c><c>   1</c></rc>
    <rc><c>Si</c><c>   1</c></rc>
    <rc><c>Si</c><c>   1</c></rc>
    <rc><c>Si</c><c>   1</c></rc>
    <rc><c>Si</c><c>   1</c></rc>
    <rc><c>Si</c><c>   1</c></rc>
    <rc><c>Si</c><c>   1</c></rc>
    <rc><c>Si</c><c>   1</c></rc>
    <rc><c>Si</c><c>   1</c></rc>
    <rc><c>Si</c><c>   1</c></rc>
    <rc><c>Si</c><c>   1</c></rc>
    <rc><c>Si</c><c>   1</c></rc>
    <rc><c>Si</c><c>   1</c></rc>
    <rc><c>Si</c><c>   1</c></rc>
    <rc><c>Si</c><c>   1</c></rc>
    <rc><c>Si</c><c>   1</c></rc>
    <rc><c>Si</c><c>   1</c></rc>
    <rc><c>Si</c><c>   1</c></rc>
    <rc><c>Si</c><c>   1</c></rc>
    <rc><c>Si</c><c>   1</c></rc>
    <rc><c>Si</c><c>   1</c></rc>
    <rc><c>Si</c><c>   1</c></rc>
    <rc><c>Si</c><c>   1</c></rc>
    <rc><c>Si</c><c>   1</c></rc>
    <rc><c>Si</c><c>   1</c></rc>
    <rc><c>Si</c><c>   1</c></rc>
    <rc><c>Si</c><c>   1</c></rc>
    <rc><c>Si</c><c>   1</c></rc>
    <rc><c>Si</c><c>   1</c></rc>
    <rc><c>Si</c><c>   1</c></rc>
    <rc><c>Si</c><c>   1</c></rc>
    <rc><c>Si</c><c>   1</c></rc>
    <rc><c>Si</c><c>   1</c></rc>
    <rc><c>Si</c><c>   1</c></rc>
    <rc><c>Si</c><c>   1</c></rc>
    <rc><c>Si</c><c>   1</c></rc>
    <rc><c>Si</c><c>   1</c></rc>
    <rc><c>Si</c><c>   1</c></rc>
    <rc><c>Si</c><c>   1</c></rc>
    <rc><c>Si</c><c>   1</c></rc>
    <rc><c>Si</c><c>   1</c></rc>
    <rc><c>Si</c><c>   1</c></rc>
    <rc><c>Si</c><c>   1</c></rc>
    <rc><c>Si</c><c>   1</c></rc>
    <rc><c>Si</c><c>   1</c></rc>
    <rc><c>Si</c><c>   1</c></rc>
    <rc><c>Si</c><c>   1</c></rc>
   </set>
  </array>
  <array name="atomtypes" >
   <dimension dim="1">type</dimension>
   <field type="int">atomspertype</field>
   <field type="string">element</field>
   <field>mass</field>
   <field>valence</field>
   <field type="string">pseudopotential</field>
   <set>
    <rc><c>  64</c><c>Si</c><c>     28.08500000</c><c>      4.00000000</c><c>  PAW_PBE Si 05Jan2001                  </c></rc>
   </set>
  </array>
 </atominfo>
 <structure name="initialpos" >
  <crystal>
   <varray name="basis" >
    <v>      10.93252578       0.00000000       0.00000000 </v>
    <v>       0.00000000      10.93252578       0.00000000 </v>
    <v>       0.00000000       0.00000000      10.93252578 </v>
   </varray>
   <i name="volume">   1306.65679237 </i>
   <varray name="rec_basis" >
    <v>       0.09147017       0.00000000       0.00000000 </v>
    <v>       0.00000000       0.09147017       0.00000000 </v>
    <v>       0.00000000       0.00000000       0.09147017 </v>
   </varray>
  </crystal>
  <varray name="positions" >
   <v>       0.44024411       0.43750000       0.43750000 </v>
   <v>       0.93750000       0.43750000       0.43750000 </v>
   <v>       0.43750000       0.93750000       0.43750000 </v>
   <v>       0.93750000       0.93750000       0.43750000 </v>
   <v>       0.43750000       0.43750000       0.93750000 </v>
   <v>       0.93750000       0.43750000       0.93750000 </v>
   <v>       0.43750000       0.93750000       0.93750000 </v>
   <v>       0.93750000       0.93750000       0.93750000 </v>
   <v>       0.43750000       0.18750000       0.18750000 </v>
   <v>       0.93750000       0.18750000       0.18750000 </v>
   <v>       0.43750000       0.68750000       0.18750000 </v>
   <v>       0.93750000       0.68750000       0.18750000 </v>
   <v>       0.43750000       0.18750000       0.68750000 </v>
   <v>       0.93750000       0.18750000       0.68750000 </v>
   <v>       0.43750000       0.68750000       0.68750000 </v>
   <v>       0.93750000       0.68750000       0.68750000 </v>
   <v>       0.18750000       0.44024411       0.18750000 </v>
   <v>       0.68750000       0.43750000       0.18750000 </v>
   <v>       0.18750000       0.93750000       0.18750000 </v>
   <v>       0.68750000       0.93750000       0.18750000 </v>
   <v>       0.18750000       0.43750000       0.68750000 </v>
   <v>       0.68750000       0.43750000       0.68750000 </v>
   <v>       0.18750000       0.93750000       0.68750000 </v>
   <v>       0.68750000       0.93750000       0.68750000 </v>
   <v>       0.18750000       0.18750000       0.43750000 </v>
   <v>       0.68750000       0.18750000       0.43750000 </v>
   <v>       0.18750000       0.68750000       0.43750000 </v>
   <v>       0.68750000       0.68750000       0.43750000 </v>
   <v>       0.18750000       0.18750000       0.93750000 </v>
   <v>       0.68750000       0.18750000       0.93750000 </v>
   <v>       0.18750000       0.68750000       0.93750000 </v>
   <v>       0.68750000       0.68750000       0.93750000 </v>
   <v>       0.06250000       0.06250000       0.06250000 </v>
   <v>       0.56250000       0.06250000       0.06250000 </v>
   <v>       0.06250000       0.56250000       0.06250000 </v>
   <v>       0.56250000       0.56250000       0.06250000 </v>
   <v>       0.06250000       0.06250000       0.56250000 </v>
   <v>       0.56250000       0.06250000       0.56250000 </v>
   <v>       0.06250000       0.56250000       0.56250000 </v>
   <v>       0.56250000       0.56250000       0.56250000 </v>
   <v>       0.06250000       0.31250000       0.31250000 </v>
   <v>       0.56250000       0.31250000       0.31250000 </v>
   <v>       0.06250000       0.81250000       0.31250000 </v>
   <v>       0.56250000       0.81250000       0.31250000 </v>
   <v>       0.06250000       0.31250000       0.81250000 </v>
   <v>       0.56250000       0.31250000       0.81250000 </v>
   <v>       0.06250000       0.81250000       0.81250000 </v>
   <v>       0.56250000       0.81250000       0.81250000 </v>
   <v>       0.31250000       0.06250000       0.31250000 </v>
   <v>       0.81250000       0.06250000       0.31250000 </v>
   <v>       0.31250000       0.56250000       0.31250000 </v>
   <v>       0.81250000       0.56250000       0.31250000 </v>
   <v>       0.31250000       0.06250000       0.81250000 </v>
   <v>       0.81250000       0.06250000       0.81250000 </v>
   <v>       0.31250000       0.56250000       0.81250000 </v>
   <v>       0.81250000       0.56250000       0.81250000 </v>
   <v>       0.31250000       0.31250000       0.06250000 </v>
   <v>       0.81250000       0.31250000       0.06250000 </v>
   <v>       0.31250000       0.81250000       0.06250000 </v>
   <v>       0.81250000       0.81250000       0.06250000 </v>
   <v>       0.31250000       0.31250000       0.56250000 </v>
   <v>       0.81250000       0.31250000       0.56250000 </v>
   <v>       0.31250000       0.81250000       0.56250000 </v>
   <v>       0.81250000       0.81250000       0.56250000 </v>
  </varray>
 </structure>
 <calculation>
  <scstep>
   <time name="dav">    5.75    5.78</time>
   <time name="total">    6.00    6.09</time>
   <energy>
    <i name="alphaZ">    105.52440745 </i>
    <i name="ewald">  -7265.47121034 </i>
    <i name="hartreedc">   -361.71243393 </i>
    <i name="XCdc">   -597.75713647 </i>
    <i name="pawpsdc">   5639.92317535 </i>
    <i name="pawaedc">  -4513.95313856 </i>
    <i name="eentropy">     -0.00108524 </i>
    <i name="bandstr">    856.87355907 </i>
    <i name="atom">   6596.14994790 </i>
    <i name="e_fr_energy">    459.57608524 </i>
    <i name="e_wo_entrp">    459.57717048 </i>
    <i name="e_0_energy">    459.57662786 </i>
   </energy>
  </scstep>
  <scstep>
   <time name="dav">    6.50    6.50</time>
   <time name="total">    6.50    6.51</time>
   <energy>
    <i name="e_fr_energy">   -300.08464275 </i>
    <i name="e_wo_entrp">   -300.08464275 </i>
    <i name="e_0_energy">   -300.08464275 </i>
   </energy>
  </scstep>
  <scstep>
   <time name="dav">    6.08    6.59</time>
   <time name="total">    6.08    6.60</time>
   <energy>
    <i name="e_fr_energy">   -350.93660433 </i>
    <i name="e_wo_entrp">   -350.93660433 </i>
    <i name="e_0_energy">   -350.93660433 </i>
   </energy>
  </scstep>
  <scstep>
   <time name="dav">    6.05    6.57</time>
   <time name="total">    6.05    6.57</time>
   <energy>
    <i name="e_fr_energy">   -352.26652032 </i>
    <i name="e_wo_entrp">   -352.26652032 </i>
    <i name="e_0_energy">   -352.26652032 </i>
   </energy>
  </scstep>
  <scstep>
   <time name="dav">    6.14    6.64</time>
   <time name="total">    6.44    6.97</time>
   <energy>
    <i name="e_fr_energy">   -352.31312165 </i>
    <i name="e_wo_entrp">   -352.31312165 </i>
    <i name="e_0_energy">   -352.31312165 </i>
   </energy>
  </scstep>
  <scstep>
   <time name="dav">    5.86    6.36</time>
   <time name="total">    6.40    6.96</time>
   <energy>
    <i name="e_fr_energy">   -348.58445643 </i>
    <i name="e_wo_entrp">   -348.58445643 </i>
    <i name="e_0_energy">   -348.58445643 </i>
   </energy>
  </scstep>
  <scstep>
   <time name="dav">    5.90    6.40</time>
   <time name="total">    6.44    7.00</time>
   <energy>
    <i name="e_fr_energy">   -346.87174142 </i>
    <i name="e_wo_entrp">   -346.87174142 </i>
    <i name="e_0_energy">   -346.87174142 </i>
   </energy>
  </scstep>
  <scstep>
   <time name="dav">    5.85    6.34</time>
   <time name="total">    6.38    6.95</time>
   <energy>
    <i name="e_fr_energy">   -346.89805487 </i>
    <i name="e_wo_entrp">   -346.89805487 </i>
    <i name="e_0_energy">   -346.89805487 </i>
   </energy>
  </scstep>
  <scstep>
   <time name="dav">    6.15    6.67</time>
   <time name="total">    6.70    7.26</time>
   <energy>
    <i name="e_fr_energy">   -346.90479467 </i>
    <i name="e_wo_entrp">   -346.90479467 </i>
    <i name="e_0_energy">   -346.90479467 </i>
   </energy>
  </scstep>
  <scstep>
   <time name="dav">    6.09    6.09</time>
   <time name="total">    6.75    6.76</time>
   <energy>
    <i name="e_fr_energy">   -346.90683907 </i>
    <i name="e_wo_entrp">   -346.90683907 </i>
    <i name="e_0_energy">   -346.90683907 </i>
   </energy>
  </scstep>
  <scstep>
   <time name="dav">    6.03    6.53</time>
   <time name="total">    6.58    7.14</time>
   <energy>
    <i name="e_fr_energy">   -346.90681642 </i>
    <i name="e_wo_entrp">   -346.90681642 </i>
    <i name="e_0_energy">   -346.90681642 </i>
   </energy>
  </scstep>
  <scstep>
   <time name="dav">    6.00    6.50</time>
   <time name="total">    6.53    7.08</time>
   <energy>
    <i name="e_fr_energy">   -346.90683082 </i>
    <i name="e_wo_entrp">   -346.90683082 </i>
    <i name="e_0_energy">   -346.90683082 </i>
   </energy>
  </scstep>
  <scstep>
   <time name="dav">    5.90    6.39</time>
   <time name="total">    6.43    6.99</time>
   <energy>
    <i name="e_fr_energy">   -346.90683154 </i>
    <i name="e_wo_entrp">   -346.90683154 </i>
    <i name="e_0_energy">   -346.90683154 </i>
   </energy>
  </scstep>
  <scstep>
   <time name="dav">    6.16    6.68</time>
   <time name="total">    6.69    7.27</time>
   <energy>
    <i name="e_fr_energy">   -346.90683213 </i>
    <i name="e_wo_entrp">   -346.90683213 </i>
    <i name="e_0_energy">   -346.90683213 </i>
   </energy>
  </scstep>
  <scstep>
   <time name="dav">    4.84    5.25</time>
   <time name="total">    5.39    5.85</time>
   <energy>
    <i name="e_fr_energy">   -346.90683191 </i>
    <i name="e_wo_entrp">   -346.90683191 </i>
    <i name="e_0_energy">   -346.90683191 </i>
   </energy>
  </scstep>
  <scstep>
   <time name="dav">    4.48    4.48</time>
   <time name="total">    5.08    5.10</time>
   <energy>
    <i name="e_fr_energy">   -346.90683198 </i>
    <i name="e_wo_entrp">   -346.90683198 </i>
    <i name="e_0_energy">   -346.90683198 </i>
   </energy>
  </scstep>
  <scstep>
   <time name="dav">    4.06    4.41</time>
   <time name="total">    4.60    5.00</time>
   <energy>
    <i name="e_fr_energy">   -346.90683196 </i>
    <i name="e_wo_entrp">   -346.90683196 </i>
    <i name="e_0_energy">   -346.90683196 </i>
   </energy>
  </scstep>
  <scstep>
   <time name="dav">    4.05    4.39</time>
   <time name="total">    4.59    5.00</time>
   <energy>
    <i name="e_fr_energy">   -346.90683198 </i>
    <i name="e_wo_entrp">   -346.90683198 </i>
    <i name="e_0_energy">   -346.90683198 </i>
   </energy>
  </scstep>
  <scstep>
   <time name="dav">    4.05    4.39</time>
   <time name="total">    4.29    4.67</time>
   <energy>
    <i name="alphaZ">    105.52440745 </i>
    <i name="ewald">  -7265.47121034 </i>
    <i name="hartreedc">   -485.14328153 </i>
    <i name="XCdc">   -577.61228709 </i>
    <i name="pawpsdc">  27883.40235775 </i>
    <i name="pawaedc"> -26764.12028190 </i>
    <i name="eentropy">      0.00000000 </i>
    <i name="bandstr">    160.36351578 </i>
    <i name="atom">   6596.14994790 </i>
    <i name="e_fr_energy">   -346.90683198 </i>
    <i name="e_wo_entrp">   -346.90683198 </i>
    <i name="e_0_energy">   -346.90683198 </i>
   </energy>
  </scstep>
  <structure>
   <crystal>
    <varray name="basis" >
     <v>      10.93252578       0.00000000       0.00000000 </v>
     <v>       0.00000000      10.93252578       0.00000000 </v>
     <v>       0.00000000       0.00000000      10.93252578 </v>
    </varray>
    <i name="volume">   1306.65679237 </i>
    <varray name="rec_basis" >
     <v>       0.09147017       0.00000000       0.00000000 </v>
     <v>       0.00000000       0.09147017       0.00000000 </v>
     <v>       0.00000000       0.00000000       0.09147017 </v>
    </varray>
   </crystal>
   <varray name="positions" >
    <v>       0.44024411       0.43750000       0.43750000 </v>
    <v>       0.93750000       0.43750000       0.43750000 </v>
    <v>       0.43750000       0.93750000       0.43750000 </v>
    <v>       0.93750000       0.93750000       0.43750000 </v>
    <v>       0.43750000       0.43750000       0.93750000 </v>
    <v>       0.93750000       0.43750000       0.93750000 </v>
    <v>       0.43750000       0.93750000       0.93750000 </v>
    <v>       0.93750000       0.93750000       0.93750000 </v>
    <v>       0.43750000       0.18750000       0.18750000 </v>
    <v>       0.93750000       0.18750000       0.18750000 </v>
    <v>       0.43750000       0.68750000       0.18750000 </v>
    <v>       0.93750000       0.68750000       0.18750000 </v>
    <v>       0.43750000       0.18750000       0.68750000 </v>
    <v>       0.93750000       0.18750000       0.68750000 </v>
    <v>       0.43750000       0.68750000       0.68750000 </v>
    <v>       0.93750000       0.68750000       0.68750000 </v>
    <v>       0.18750000       0.44024411       0.18750000 </v>
    <v>       0.68750000       0.43750000       0.18750000 </v>
    <v>       0.18750000       0.93750000       0.18750000 </v>
    <v>       0.68750000       0.93750000       0.18750000 </v>
    <v>       0.18750000       0.43750000       0.68750000 </v>
    <v>       0.68750000       0.43750000       0.68750000 </v>
    <v>       0.18750000       0.93750000       0.68750000 </v>
    <v>       0.68750000       0.93750000       0.68750000 </v>
    <v>       0.18750000       0.18750000       0.43750000 </v>
    <v>       0.68750000       0.18750000       0.43750000 </v>
    <v>       0.18750000       0.68750000       0.43750000 </v>
    <v>       0.68750000       0.68750000       0.43750000 </v>
    <v>       0.18750000       0.18750000       0.93750000 </v>
    <v>       0.68750000       0.18750000       0.93750000 </v>
    <v>       0.18750000       0.68750000       0.93750000 </v>
    <v>       0.68750000       0.68750000       0.93750000 </v>
    <v>       0.06250000       0.06250000       0.06250000 </v>
    <v>       0.56250000       0.06250000       0.06250000 </v>
    <v>       0.06250000       0.56250000       0.06250000 </v>
    <v>       0.56250000       0.56250000       0.06250000 </v>
    <v>       0.06250000       0.06250000       0.56250000 </v>
    <v>       0.56250000       0.06250000       0.56250000 </v>
    <v>       0.06250000       0.56250000       0.56250000 </v>
    <v>       0.56250000       0.56250000       0.56250000 </v>
    <v>       0.06250000       0.31250000       0.31250000 </v>
    <v>       0.56250000       0.31250000       0.31250000 </v>
    <v>       0.06250000       0.81250000       0.31250000 </v>
    <v>       0.56250000       0.81250000       0.31250000 </v>
    <v>       0.06250000       0.31250000       0.81250000 </v>
    <v>       0.56250000       0.31250000       0.81250000 </v>
    <v>       0.06250000       0.81250000       0.81250000 </v>
    <v>       0.56250000       0.81250000       0.81250000 </v>
    <v>       0.31250000       0.06250000       0.31250000 </v>
    <v>       0.81250000       0.06250000       0.31250000 </v>
    <v>       0.31250000       0.56250000       0.31250000 </v>
    <v>       0.81250000       0.56250000       0.31250000 </v>
    <v>       0.31250000       0.06250000       0.81250000 </v>
    <v>       0.81250000       0.06250000       0.81250000 </v>
    <v>       0.31250000       0.56250000       0.81250000 </v>
    <v>       0.81250000       0.56250000       0.81250000 </v>
    <v>       0.31250000       0.31250000       0.06250000 </v>
    <v>       0.81250000       0.31250000       0.06250000 </v>
    <v>       0.31250000       0.81250000       0.06250000 </v>
    <v>       0.81250000       0.81250000       0.06250000 </v>
    <v>       0.31250000       0.31250000       0.56250000 </v>
    <v>       0.81250000       0.31250000       0.56250000 </v>
    <v>       0.31250000       0.81250000       0.56250000 </v>
    <v>       0.81250000       0.81250000       0.56250000 </v>
   </varray>
  </structure>
  <varray name="forces" >
   <v>      -0.38979964      -0.01288221      -0.00275265 </v>
   <v>      -0.00211562      -0.01278247       0.00266457 </v>
   <v>       0.00108789      -0.00002517      -0.00022526 </v>
   <v>      -0.00041184       0.00000328       0.00024080 </v>
   <v>       0.00398286      -0.01277794      -0.00266578 </v>
   <v>       0.00259038      -0.01287834       0.00277370 </v>
   <v>      -0.01130904       0.00000119      -0.00022864 </v>
   <v>       0.00080352      -0.00002423       0.00022846 </v>
   <v>      -0.01844654       0.00841420       0.00543320 </v>
   <v>       0.00552746       0.00587402      -0.00243929 </v>
   <v>      -0.00710666       0.00847303       0.00007686 </v>
   <v>      -0.00568769       0.00603727      -0.00300470 </v>
   <v>      -0.01091332      -0.00165590       0.00289437 </v>
   <v>      -0.00186255       0.00077976       0.00000365 </v>
   <v>      -0.01471334      -0.00174372      -0.00253624 </v>
   <v>       0.00182215       0.00079393      -0.00045792 </v>
   <v>       0.00572556      -0.38989696       0.00550384 </v>
   <v>       0.00581243      -0.00145117      -0.00569152 </v>
   <v>       0.00101730       0.00031740      -0.00186194 </v>
   <v>       0.00101589      -0.00040785       0.00184219 </v>
   <v>       0.00564940       0.00399922      -0.00555827 </v>
   <v>       0.00580383      -0.00878421       0.00567119 </v>
   <v>       0.00100982       0.00005305       0.00185603 </v>
   <v>       0.00102567       0.00080397      -0.00184856 </v>
   <v>       0.00831429       0.01120651      -0.00824549 </v>
   <v>       0.00602986      -0.00466240      -0.00088398 </v>
   <v>       0.00841320       0.00018859       0.00828134 </v>
   <v>       0.00603866       0.00671496       0.00094219 </v>
   <v>      -0.00164767       0.00378099       0.00533794 </v>
   <v>       0.00079385       0.00286488      -0.00209067 </v>
   <v>      -0.00174457       0.00765518      -0.00545426 </v>
   <v>       0.00079150      -0.00082086       0.00207772 </v>
   <v>      -0.00144554       0.00047857      -0.00015699 </v>
   <v>       0.00561145       0.00131166       0.00003307 </v>
   <v>      -0.06552943       0.09646796      -0.06553107 </v>
   <v>      -0.00240300      -0.00026708      -0.00029316 </v>
   <v>      -0.00002925       0.00122218       0.00005518 </v>
   <v>      -0.00223314       0.00038737       0.00045874 </v>
   <v>      -0.00148918      -0.00056218      -0.00001268 </v>
   <v>       0.09509255       0.07234901       0.06547170 </v>
   <v>       0.06067767       0.09217621      -0.06188086 </v>
   <v>       0.09668237      -0.06754128      -0.06737272 </v>
   <v>       0.00151437      -0.00087390      -0.00154732 </v>
   <v>      -0.00083300      -0.00026384      -0.00190492 </v>
   <v>       0.00186756      -0.00208850      -0.00148962 </v>
   <v>      -0.00080470       0.00492992      -0.00159923 </v>
   <v>       0.00016566      -0.00009294      -0.00139346 </v>
   <v>       0.00694136      -0.00121371      -0.00142599 </v>
   <v>      -0.00052240      -0.00116372       0.00215843 </v>
   <v>       0.00126072      -0.00002040       0.00134909 </v>
   <v>       0.15906410       0.03490091       0.12716829 </v>
   <v>       0.00064796      -0.00237890       0.00211880 </v>
   <v>       0.00679101      -0.00005973       0.00127633 </v>
   <v>       0.00022118      -0.00128196       0.00149888 </v>
   <v>      -0.00021848      -0.00272109       0.00181030 </v>
   <v>       0.00134678       0.00550349       0.00131892 </v>
   <v>      -0.06241307       0.09433463       0.06006747 </v>
   <v>      -0.00022620      -0.00072768       0.00060552 </v>
   <v>       0.00523751       0.00039959       0.00023101 </v>
   <v>      -0.00117141       0.00140645      -0.00004086 </v>
   <v>       0.09185643       0.05951986      -0.06004786 </v>
   <v>      -0.00095025       0.00704555      -0.00022777 </v>
   <v>      -0.00212816       0.00154611      -0.00060635 </v>
   <v>      -0.00007845       0.00010948       0.00002625 </v>
  </varray>
  <varray name="stress" >
   <v>       0.00169693      -0.00004842       0.33511629 </v>
   <v>      -0.00004845       0.00154851       0.33508927 </v>
   <v>       0.33511630       0.33508928       0.02105953 </v>
  </varray>
  <energy>
   <i name="e_fr_energy">   -346.90683198 </i>
   <i name="e_wo_entrp">   -346.90683198 </i>
   <i name="e_0_energy">      0.00000000 </i>
  </energy>
  <time name="totalsc">  126.20  134.06</time>
  <eigenvalues>
   <array>
    <dimension dim="1">band</dimension>
    <dimension dim="2">kpoint</dimension>
    <dimension dim="3">spin</dimension>
    <field>eigene</field>
    <field>occ</field>
    <set>
     <set comment="spin 1">
      <set comment="kpoint 1">
       <r>   -5.9931    1.0000 </r>
       <r>   -5.4676    1.0000 </r>
       <r>   -5.4651    1.0000 </r>
       <r>   -5.4620    1.0000 </r>
       <r>   -4.9682    1.0000 </r>
       <r>   -4.9656    1.0000 </r>
       <r>   -4.9626    1.0000 </r>
       <r>   -4.5312    1.0000 </r>
       <r>   -4.4351    1.0000 </r>
       <r>   -4.4324    1.0000 </r>
       <r>   -4.4290    1.0000 </r>
       <r>   -4.0257    1.0000 </r>
       <r>   -4.0202    1.0000 </r>
       <r>   -4.0159    1.0000 </r>
       <r>   -4.0150    1.0000 </r>
       <r>   -4.0137    1.0000 </r>
       <r>   -4.0109    1.0000 </r>
       <r>   -3.8295    1.0000 </r>
       <r>   -3.8238    1.0000 </r>
       <r>   -3.8217    1.0000 </r>
       <r>   -3.3304    1.0000 </r>
       <r>   -3.3274    1.0000 </r>
       <r>   -3.3221    1.0000 </r>
       <r>   -2.9650    1.0000 </r>
       <r>   -2.9577    1.0000 </r>
       <r>   -2.9560    1.0000 </r>
       <r>   -2.7986    1.0000 </r>
       <r>   -2.7951    1.0000 </r>
       <r>   -2.7903    1.0000 </r>
       <r>   -2.7891    1.0000 </r>
       <r>   -2.7876    1.0000 </r>
       <r>   -2.7861    1.0000 </r>
       <r>   -1.2560    1.0000 </r>
       <r>   -1.2518    1.0000 </r>
       <r>   -1.2482    1.0000 </r>
       <r>   -1.2466    1.0000 </r>
       <r>   -1.2454    1.0000 </r>
       <r>   -1.2427    1.0000 </r>
       <r>   -1.1560    1.0000 </r>
       <r>   -1.1484    1.0000 </r>
       <r>   -1.1464    1.0000 </r>
       <r>   -1.0343    1.0000 </r>
       <r>   -1.0320    1.0000 </r>
       <r>   -1.0266    1.0000 </r>
       <r>   -0.9579    1.0000 </r>
       <r>   -0.9488    1.0000 </r>
       <r>   -0.9455    1.0000 </r>
       <r>   -0.2481    1.0000 </r>
       <r>   -0.1671    1.0000 </r>
       <r>   -0.1614    1.0000 </r>
       <r>   -0.1600    1.0000 </r>
       <r>   -0.1574    1.0000 </r>
       <r>   -0.1552    1.0000 </r>
       <r>   -0.1511    1.0000 </r>
       <r>    0.7053    1.0000 </r>
       <r>    0.7140    1.0000 </r>
       <r>    0.7166    1.0000 </r>
       <r>    1.0437    1.0000 </r>
       <r>    1.0476    1.0000 </r>
       <r>    1.0501    1.0000 </r>
       <r>    1.6527    1.0000 </r>
       <r>    1.6554    1.0000 </r>
       <r>    1.6565    1.0000 </r>
       <r>    1.6575    1.0000 </r>
       <r>    1.6595    1.0000 </r>
       <r>    1.6606    1.0000 </r>
       <r>    1.7151    1.0000 </r>
       <r>    1.7169    1.0000 </r>
       <r>    1.7197    1.0000 </r>
       <r>    2.2632    1.0000 </r>
       <r>    2.2666    1.0000 </r>
       <r>    2.2678    1.0000 </r>
       <r>    2.3665    1.0000 </r>
       <r>    2.3696    1.0000 </r>
       <r>    2.3712    1.0000 </r>
       <r>    2.3728    1.0000 </r>
       <r>    2.3752    1.0000 </r>
       <r>    2.3771    1.0000 </r>
       <r>    2.4245    1.0000 </r>
       <r>    2.4268    1.0000 </r>
       <r>    2.4305    1.0000 </r>
       <r>    2.7298    1.0000 </r>
       <r>    2.7331    1.0000 </r>
       <r>    2.7345    1.0000 </r>
       <r>    2.7354    1.0000 </r>
       <r>    2.7359    1.0000 </r>
       <r>    2.7400    1.0000 </r>
       <r>    2.9986    1.0000 </r>
       <r>    3.0007    1.0000 </r>
       <r>    3.0017    1.0000 </r>
       <r>    3.0118    1.0000 </r>
       <r>    3.0151    1.0000 </r>
       <r>    3.0173    1.0000 </r>
       <r>    3.3571    1.0000 </r>
       <r>    3.3599    1.0000 </r>
       <r>    3.3630    1.0000 </r>
       <r>    3.3772    1.0000 </r>
       <r>    3.3826    1.0000 </r>
       <r>    3.3844    1.0000 </r>
       <r>    3.4658    1.0000 </r>
       <r>    3.4672    1.0000 </r>
       <r>    3.4702    1.0000 </r>
       <r>    3.7304    1.0000 </r>
       <r>    3.7354    1.0000 </r>
       <r>    3.7396    1.0000 </r>
       <r>    3.7415    1.0000 </r>
       <r>    3.7419    1.0000 </r>
       <r>    3.7432    1.0000 </r>
       <r>    3.7799    1.0000 </r>
       <r>    3.7813    1.0000 </r>
       <r>    3.7847    1.0000 </r>
       <r>    4.0368    1.0000 </r>
       <r>    4.0979    1.0000 </r>
       <r>    4.1007    1.0000 </r>
       <r>    4.1017    1.0000 </r>
       <r>    4.3407    1.0000 </r>
       <r>    4.3422    1.0000 </r>
       <r>    4.3459    1.0000 </r>
       <r>    4.3949    1.0000 </r>
       <r>    4.4039    1.0000 </r>
       <r>    4.4053    1.0000 </r>
       <r>    4.5617    1.0000 </r>
       <r>    4.5664    1.0000 </r>
       <r>    4.8696    1.0000 </r>
       <r>    4.8719    1.0000 </r>
       <r>    4.8767    1.0000 </r>
       <r>    5.3493    1.0000 </r>
       <r>    5.3547    1.0000 </r>
       <r>    6.5618    0.0000 </r>
       <r>    6.5656    0.0000 </r>
       <r>    6.5675    0.0000 </r>
       <r>    7.0012    0.0000 </r>
       <r>    7.0061    0.0000 </r>
       <r>    7.0083    0.0000 </r>
       <r>    7.2352    0.0000 </r>
       <r>    7.4887    0.0000 </r>
       <r>    7.4932    0.0000 </r>
       <r>    7.4949    0.0000 </r>
       <r>    7.6151    0.0000 </r>
       <r>    7.6168    0.0000 </r>
       <r>    7.6226    0.0000 </r>
       <r>    7.7776    0.0000 </r>
       <r>    7.7794    0.0000 </r>
       <r>    7.7839    0.0000 </r>
       <r>    7.7992    0.0000 </r>
       <r>    7.8026    0.0000 </r>
       <r>    7.8039    0.0000 </r>
       <r>    8.0224    0.0000 </r>
       <r>    8.0251    0.0000 </r>
       <r>    8.0284    0.0000 </r>
       <r>    8.0310    0.0000 </r>
       <r>    8.0317    0.0000 </r>
       <r>    8.0339    0.0000 </r>
       <r>    8.0838    0.0000 </r>
       <r>    8.2927    0.0000 </r>
       <r>    8.2959    0.0000 </r>
       <r>    8.2970    0.0000 </r>
       <r>    8.4933    0.0000 </r>
       <r>    8.5001    0.0000 </r>
       <r>    8.5024    0.0000 </r>
       <r>    8.5030    0.0000 </r>
       <r>    8.5105    0.0000 </r>
       <r>    8.5200    0.0000 </r>
       <r>    8.5445    0.0000 </r>
      </set>
      <set comment="kpoint 2">
       <r>   -5.9932    1.0000 </r>
       <r>   -5.4673    1.0000 </r>
       <r>   -5.4654    1.0000 </r>
       <r>   -5.4616    1.0000 </r>
       <r>   -4.9677    1.0000 </r>
       <r>   -4.9662    1.0000 </r>
       <r>   -4.9626    1.0000 </r>
       <r>   -4.5322    1.0000 </r>
       <r>   -4.4349    1.0000 </r>
       <r>   -4.4332    1.0000 </r>
       <r>   -4.4293    1.0000 </r>
       <r>   -4.0249    1.0000 </r>
       <r>   -4.0184    1.0000 </r>
       <r>   -4.0164    1.0000 </r>
       <r>   -4.0161    1.0000 </r>
       <r>   -4.0136    1.0000 </r>
       <r>   -4.0092    1.0000 </r>
       <r>   -3.8283    1.0000 </r>
       <r>   -3.8244    1.0000 </r>
       <r>   -3.8203    1.0000 </r>
       <r>   -3.3305    1.0000 </r>
       <r>   -3.3291    1.0000 </r>
       <r>   -3.3255    1.0000 </r>
       <r>   -2.9627    1.0000 </r>
       <r>   -2.9591    1.0000 </r>
       <r>   -2.9558    1.0000 </r>
       <r>   -2.7991    1.0000 </r>
       <r>   -2.7928    1.0000 </r>
       <r>   -2.7909    1.0000 </r>
       <r>   -2.7906    1.0000 </r>
       <r>   -2.7887    1.0000 </r>
       <r>   -2.7829    1.0000 </r>
       <r>   -1.2579    1.0000 </r>
       <r>   -1.2516    1.0000 </r>
       <r>   -1.2489    1.0000 </r>
       <r>   -1.2480    1.0000 </r>
       <r>   -1.2460    1.0000 </r>
       <r>   -1.2411    1.0000 </r>
       <r>   -1.1544    1.0000 </r>
       <r>   -1.1511    1.0000 </r>
       <r>   -1.1476    1.0000 </r>
       <r>   -1.0374    1.0000 </r>
       <r>   -1.0328    1.0000 </r>
       <r>   -1.0278    1.0000 </r>
       <r>   -0.9540    1.0000 </r>
       <r>   -0.9463    1.0000 </r>
       <r>   -0.9396    1.0000 </r>
       <r>   -0.2446    1.0000 </r>
       <r>   -0.1677    1.0000 </r>
       <r>   -0.1636    1.0000 </r>
       <r>   -0.1607    1.0000 </r>
       <r>   -0.1593    1.0000 </r>
       <r>   -0.1563    1.0000 </r>
       <r>   -0.1531    1.0000 </r>
       <r>    0.7084    1.0000 </r>
       <r>    0.7144    1.0000 </r>
       <r>    0.7200    1.0000 </r>
       <r>    1.0430    1.0000 </r>
       <r>    1.0472    1.0000 </r>
       <r>    1.0511    1.0000 </r>
       <r>    1.6521    1.0000 </r>
       <r>    1.6545    1.0000 </r>
       <r>    1.6561    1.0000 </r>
       <r>    1.6580    1.0000 </r>
       <r>    1.6588    1.0000 </r>
       <r>    1.6619    1.0000 </r>
       <r>    1.7136    1.0000 </r>
       <r>    1.7163    1.0000 </r>
       <r>    1.7187    1.0000 </r>
       <r>    2.2655    1.0000 </r>
       <r>    2.2679    1.0000 </r>
       <r>    2.2698    1.0000 </r>
       <r>    2.3653    1.0000 </r>
       <r>    2.3682    1.0000 </r>
       <r>    2.3696    1.0000 </r>
       <r>    2.3720    1.0000 </r>
       <r>    2.3737    1.0000 </r>
       <r>    2.3760    1.0000 </r>
       <r>    2.4214    1.0000 </r>
       <r>    2.4246    1.0000 </r>
       <r>    2.4293    1.0000 </r>
       <r>    2.7296    1.0000 </r>
       <r>    2.7332    1.0000 </r>
       <r>    2.7346    1.0000 </r>
       <r>    2.7350    1.0000 </r>
       <r>    2.7365    1.0000 </r>
       <r>    2.7407    1.0000 </r>
       <r>    2.9969    1.0000 </r>
       <r>    2.9989    1.0000 </r>
       <r>    3.0020    1.0000 </r>
       <r>    3.0099    1.0000 </r>
       <r>    3.0135    1.0000 </r>
       <r>    3.0170    1.0000 </r>
       <r>    3.3586    1.0000 </r>
       <r>    3.3622    1.0000 </r>
       <r>    3.3646    1.0000 </r>
       <r>    3.3808    1.0000 </r>
       <r>    3.3839    1.0000 </r>
       <r>    3.3887    1.0000 </r>
       <r>    3.4640    1.0000 </r>
       <r>    3.4672    1.0000 </r>
       <r>    3.4688    1.0000 </r>
       <r>    3.7332    1.0000 </r>
       <r>    3.7395    1.0000 </r>
       <r>    3.7407    1.0000 </r>
       <r>    3.7414    1.0000 </r>
       <r>    3.7433    1.0000 </r>
       <r>    3.7492    1.0000 </r>
       <r>    3.7778    1.0000 </r>
       <r>    3.7814    1.0000 </r>
       <r>    3.7834    1.0000 </r>
       <r>    4.0407    1.0000 </r>
       <r>    4.0948    1.0000 </r>
       <r>    4.0977    1.0000 </r>
       <r>    4.1014    1.0000 </r>
       <r>    4.3380    1.0000 </r>
       <r>    4.3414    1.0000 </r>
       <r>    4.3436    1.0000 </r>
       <r>    4.4002    1.0000 </r>
       <r>    4.4058    1.0000 </r>
       <r>    4.4118    1.0000 </r>
       <r>    4.5588    1.0000 </r>
       <r>    4.5670    1.0000 </r>
       <r>    4.8660    1.0000 </r>
       <r>    4.8707    1.0000 </r>
       <r>    4.8736    1.0000 </r>
       <r>    5.3451    1.0000 </r>
       <r>    5.3543    1.0000 </r>
       <r>    6.5603    0.0000 </r>
       <r>    6.5628    0.0000 </r>
       <r>    6.5670    0.0000 </r>
       <r>    6.9992    0.0000 </r>
       <r>    7.0058    0.0000 </r>
       <r>    7.0082    0.0000 </r>
       <r>    7.2337    0.0000 </r>
       <r>    7.4858    0.0000 </r>
       <r>    7.4919    0.0000 </r>
       <r>    7.4944    0.0000 </r>
       <r>    7.6158    0.0000 </r>
       <r>    7.6196    0.0000 </r>
       <r>    7.6232    0.0000 </r>
       <r>    7.7758    0.0000 </r>
       <r>    7.7802    0.0000 </r>
       <r>    7.7830    0.0000 </r>
       <r>    7.7985    0.0000 </r>
       <r>    7.8001    0.0000 </r>
       <r>    7.8055    0.0000 </r>
       <r>    8.0250    0.0000 </r>
       <r>    8.0264    0.0000 </r>
       <r>    8.0294    0.0000 </r>
       <r>    8.0318    0.0000 </r>
       <r>    8.0337    0.0000 </r>
       <r>    8.0365    0.0000 </r>
       <r>    8.0816    0.0000 </r>
       <r>    8.2914    0.0000 </r>
       <r>    8.2956    0.0000 </r>
       <r>    8.2979    0.0000 </r>
       <r>    8.4937    0.0000 </r>
       <r>    8.4992    0.0000 </r>
       <r>    8.5025    0.0000 </r>
       <r>    8.5047    0.0000 </r>
       <r>    8.5094    0.0000 </r>
       <r>    8.5204    0.0000 </r>
       <r>    8.5412    0.0000 </r>
      </set>
      <set comment="kpoint 3">
       <r>   -5.9932    1.0000 </r>
       <r>   -5.4679    1.0000 </r>
       <r>   -5.4640    1.0000 </r>
       <r>   -5.4624    1.0000 </r>
       <r>   -4.9688    1.0000 </r>
       <r>   -4.9648    1.0000 </r>
       <r>   -4.9630    1.0000 </r>
       <r>   -4.5323    1.0000 </r>
       <r>   -4.4359    1.0000 </r>
       <r>   -4.4316    1.0000 </r>
       <r>   -4.4297    1.0000 </r>
       <r>   -4.0231    1.0000 </r>
       <r>   -4.0189    1.0000 </r>
       <r>   -4.0160    1.0000 </r>
       <r>   -4.0152    1.0000 </r>
       <r>   -4.0143    1.0000 </r>
       <r>   -4.0112    1.0000 </r>
       <r>   -3.8283    1.0000 </r>
       <r>   -3.8244    1.0000 </r>
       <r>   -3.8203    1.0000 </r>
       <r>   -3.3333    1.0000 </r>
       <r>   -3.3274    1.0000 </r>
       <r>   -3.3245    1.0000 </r>
       <r>   -2.9627    1.0000 </r>
       <r>   -2.9591    1.0000 </r>
       <r>   -2.9558    1.0000 </r>
       <r>   -2.7980    1.0000 </r>
       <r>   -2.7936    1.0000 </r>
       <r>   -2.7906    1.0000 </r>
       <r>   -2.7902    1.0000 </r>
       <r>   -2.7887    1.0000 </r>
       <r>   -2.7840    1.0000 </r>
       <r>   -1.2581    1.0000 </r>
       <r>   -1.2522    1.0000 </r>
       <r>   -1.2486    1.0000 </r>
       <r>   -1.2481    1.0000 </r>
       <r>   -1.2459    1.0000 </r>
       <r>   -1.2405    1.0000 </r>
       <r>   -1.1545    1.0000 </r>
       <r>   -1.1512    1.0000 </r>
       <r>   -1.1475    1.0000 </r>
       <r>   -1.0374    1.0000 </r>
       <r>   -1.0327    1.0000 </r>
       <r>   -1.0278    1.0000 </r>
       <r>   -0.9515    1.0000 </r>
       <r>   -0.9458    1.0000 </r>
       <r>   -0.9427    1.0000 </r>
       <r>   -0.2446    1.0000 </r>
       <r>   -0.1688    1.0000 </r>
       <r>   -0.1645    1.0000 </r>
       <r>   -0.1598    1.0000 </r>
       <r>   -0.1587    1.0000 </r>
       <r>   -0.1563    1.0000 </r>
       <r>   -0.1524    1.0000 </r>
       <r>    0.7091    1.0000 </r>
       <r>    0.7148    1.0000 </r>
       <r>    0.7189    1.0000 </r>
       <r>    1.0428    1.0000 </r>
       <r>    1.0474    1.0000 </r>
       <r>    1.0512    1.0000 </r>
       <r>    1.6523    1.0000 </r>
       <r>    1.6547    1.0000 </r>
       <r>    1.6566    1.0000 </r>
       <r>    1.6579    1.0000 </r>
       <r>    1.6584    1.0000 </r>
       <r>    1.6616    1.0000 </r>
       <r>    1.7133    1.0000 </r>
       <r>    1.7163    1.0000 </r>
       <r>    1.7188    1.0000 </r>
       <r>    2.2656    1.0000 </r>
       <r>    2.2676    1.0000 </r>
       <r>    2.2700    1.0000 </r>
       <r>    2.3653    1.0000 </r>
       <r>    2.3669    1.0000 </r>
       <r>    2.3698    1.0000 </r>
       <r>    2.3724    1.0000 </r>
       <r>    2.3743    1.0000 </r>
       <r>    2.3760    1.0000 </r>
       <r>    2.4212    1.0000 </r>
       <r>    2.4253    1.0000 </r>
       <r>    2.4289    1.0000 </r>
       <r>    2.7290    1.0000 </r>
       <r>    2.7327    1.0000 </r>
       <r>    2.7354    1.0000 </r>
       <r>    2.7357    1.0000 </r>
       <r>    2.7380    1.0000 </r>
       <r>    2.7390    1.0000 </r>
       <r>    2.9967    1.0000 </r>
       <r>    2.9998    1.0000 </r>
       <r>    3.0014    1.0000 </r>
       <r>    3.0095    1.0000 </r>
       <r>    3.0135    1.0000 </r>
       <r>    3.0175    1.0000 </r>
       <r>    3.3593    1.0000 </r>
       <r>    3.3617    1.0000 </r>
       <r>    3.3645    1.0000 </r>
       <r>    3.3813    1.0000 </r>
       <r>    3.3847    1.0000 </r>
       <r>    3.3876    1.0000 </r>
       <r>    3.4629    1.0000 </r>
       <r>    3.4672    1.0000 </r>
       <r>    3.4697    1.0000 </r>
       <r>    3.7338    1.0000 </r>
       <r>    3.7397    1.0000 </r>
       <r>    3.7411    1.0000 </r>
       <r>    3.7420    1.0000 </r>
       <r>    3.7436    1.0000 </r>
       <r>    3.7472    1.0000 </r>
       <r>    3.7766    1.0000 </r>
       <r>    3.7813    1.0000 </r>
       <r>    3.7843    1.0000 </r>
       <r>    4.0404    1.0000 </r>
       <r>    4.0946    1.0000 </r>
       <r>    4.0986    1.0000 </r>
       <r>    4.1009    1.0000 </r>
       <r>    4.3369    1.0000 </r>
       <r>    4.3413    1.0000 </r>
       <r>    4.3447    1.0000 </r>
       <r>    4.4015    1.0000 </r>
       <r>    4.4060    1.0000 </r>
       <r>    4.4103    1.0000 </r>
       <r>    4.5587    1.0000 </r>
       <r>    4.5670    1.0000 </r>
       <r>    4.8648    1.0000 </r>
       <r>    4.8705    1.0000 </r>
       <r>    4.8750    1.0000 </r>
       <r>    5.3451    1.0000 </r>
       <r>    5.3544    1.0000 </r>
       <r>    6.5597    0.0000 </r>
       <r>    6.5638    0.0000 </r>
       <r>    6.5666    0.0000 </r>
       <r>    6.9992    0.0000 </r>
       <r>    7.0047    0.0000 </r>
       <r>    7.0094    0.0000 </r>
       <r>    7.2337    0.0000 </r>
       <r>    7.4862    0.0000 </r>
       <r>    7.4907    0.0000 </r>
       <r>    7.4952    0.0000 </r>
       <r>    7.6155    0.0000 </r>
       <r>    7.6197    0.0000 </r>
       <r>    7.6233    0.0000 </r>
       <r>    7.7762    0.0000 </r>
       <r>    7.7797    0.0000 </r>
       <r>    7.7835    0.0000 </r>
       <r>    7.7975    0.0000 </r>
       <r>    7.8022    0.0000 </r>
       <r>    7.8041    0.0000 </r>
       <r>    8.0234    0.0000 </r>
       <r>    8.0284    0.0000 </r>
       <r>    8.0307    0.0000 </r>
       <r>    8.0314    0.0000 </r>
       <r>    8.0332    0.0000 </r>
       <r>    8.0357    0.0000 </r>
       <r>    8.0817    0.0000 </r>
       <r>    8.2917    0.0000 </r>
       <r>    8.2951    0.0000 </r>
       <r>    8.2981    0.0000 </r>
       <r>    8.4926    0.0000 </r>
       <r>    8.5010    0.0000 </r>
       <r>    8.5025    0.0000 </r>
       <r>    8.5052    0.0000 </r>
       <r>    8.5071    0.0000 </r>
       <r>    8.5163    0.0000 </r>
       <r>    8.5413    0.0000 </r>
      </set>
      <set comment="kpoint 4">
       <r>   -5.9932    1.0000 </r>
       <r>   -5.4676    1.0000 </r>
       <r>   -5.4644    1.0000 </r>
       <r>   -5.4619    1.0000 </r>
       <r>   -4.9684    1.0000 </r>
       <r>   -4.9653    1.0000 </r>
       <r>   -4.9631    1.0000 </r>
       <r>   -4.5332    1.0000 </r>
       <r>   -4.4358    1.0000 </r>
       <r>   -4.4323    1.0000 </r>
       <r>   -4.4301    1.0000 </r>
       <r>   -4.0214    1.0000 </r>
       <r>   -4.0192    1.0000 </r>
       <r>   -4.0184    1.0000 </r>
       <r>   -4.0164    1.0000 </r>
       <r>   -4.0117    1.0000 </r>
       <r>   -4.0089    1.0000 </r>
       <r>   -3.8270    1.0000 </r>
       <r>   -3.8249    1.0000 </r>
       <r>   -3.8191    1.0000 </r>
       <r>   -3.3331    1.0000 </r>
       <r>   -3.3298    1.0000 </r>
       <r>   -3.3275    1.0000 </r>
       <r>   -2.9623    1.0000 </r>
       <r>   -2.9607    1.0000 </r>
       <r>   -2.9537    1.0000 </r>
       <r>   -2.7957    1.0000 </r>
       <r>   -2.7945    1.0000 </r>
       <r>   -2.7929    1.0000 </r>
       <r>   -2.7906    1.0000 </r>
       <r>   -2.7877    1.0000 </r>
       <r>   -2.7820    1.0000 </r>
       <r>   -1.2564    1.0000 </r>
       <r>   -1.2539    1.0000 </r>
       <r>   -1.2508    1.0000 </r>
       <r>   -1.2487    1.0000 </r>
       <r>   -1.2463    1.0000 </r>
       <r>   -1.2402    1.0000 </r>
       <r>   -1.1558    1.0000 </r>
       <r>   -1.1536    1.0000 </r>
       <r>   -1.1460    1.0000 </r>
       <r>   -1.0384    1.0000 </r>
       <r>   -1.0334    1.0000 </r>
       <r>   -1.0310    1.0000 </r>
       <r>   -0.9475    1.0000 </r>
       <r>   -0.9430    1.0000 </r>
       <r>   -0.9373    1.0000 </r>
       <r>   -0.2410    1.0000 </r>
       <r>   -0.1689    1.0000 </r>
       <r>   -0.1660    1.0000 </r>
       <r>   -0.1627    1.0000 </r>
       <r>   -0.1609    1.0000 </r>
       <r>   -0.1581    1.0000 </r>
       <r>   -0.1527    1.0000 </r>
       <r>    0.7120    1.0000 </r>
       <r>    0.7166    1.0000 </r>
       <r>    0.7211    1.0000 </r>
       <r>    1.0442    1.0000 </r>
       <r>    1.0483    1.0000 </r>
       <r>    1.0488    1.0000 </r>
       <r>    1.6517    1.0000 </r>
       <r>    1.6555    1.0000 </r>
       <r>    1.6566    1.0000 </r>
       <r>    1.6576    1.0000 </r>
       <r>    1.6588    1.0000 </r>
       <r>    1.6607    1.0000 </r>
       <r>    1.7129    1.0000 </r>
       <r>    1.7144    1.0000 </r>
       <r>    1.7178    1.0000 </r>
       <r>    2.2676    1.0000 </r>
       <r>    2.2689    1.0000 </r>
       <r>    2.2723    1.0000 </r>
       <r>    2.3635    1.0000 </r>
       <r>    2.3670    1.0000 </r>
       <r>    2.3686    1.0000 </r>
       <r>    2.3716    1.0000 </r>
       <r>    2.3729    1.0000 </r>
       <r>    2.3739    1.0000 </r>
       <r>    2.4198    1.0000 </r>
       <r>    2.4218    1.0000 </r>
       <r>    2.4271    1.0000 </r>
       <r>    2.7313    1.0000 </r>
       <r>    2.7331    1.0000 </r>
       <r>    2.7338    1.0000 </r>
       <r>    2.7346    1.0000 </r>
       <r>    2.7380    1.0000 </r>
       <r>    2.7398    1.0000 </r>
       <r>    2.9966    1.0000 </r>
       <r>    2.9974    1.0000 </r>
       <r>    3.0001    1.0000 </r>
       <r>    3.0097    1.0000 </r>
       <r>    3.0136    1.0000 </r>
       <r>    3.0139    1.0000 </r>
       <r>    3.3612    1.0000 </r>
       <r>    3.3637    1.0000 </r>
       <r>    3.3662    1.0000 </r>
       <r>    3.3842    1.0000 </r>
       <r>    3.3864    1.0000 </r>
       <r>    3.3918    1.0000 </r>
       <r>    3.4628    1.0000 </r>
       <r>    3.4655    1.0000 </r>
       <r>    3.4682    1.0000 </r>
       <r>    3.7395    1.0000 </r>
       <r>    3.7402    1.0000 </r>
       <r>    3.7410    1.0000 </r>
       <r>    3.7431    1.0000 </r>
       <r>    3.7469    1.0000 </r>
       <r>    3.7521    1.0000 </r>
       <r>    3.7761    1.0000 </r>
       <r>    3.7795    1.0000 </r>
       <r>    3.7831    1.0000 </r>
       <r>    4.0441    1.0000 </r>
       <r>    4.0940    1.0000 </r>
       <r>    4.0950    1.0000 </r>
       <r>    4.0983    1.0000 </r>
       <r>    4.3362    1.0000 </r>
       <r>    4.3393    1.0000 </r>
       <r>    4.3419    1.0000 </r>
       <r>    4.4060    1.0000 </r>
       <r>    4.4108    1.0000 </r>
       <r>    4.4145    1.0000 </r>
       <r>    4.5593    1.0000 </r>
       <r>    4.5641    1.0000 </r>
       <r>    4.8631    1.0000 </r>
       <r>    4.8679    1.0000 </r>
       <r>    4.8713    1.0000 </r>
       <r>    5.3449    1.0000 </r>
       <r>    5.3501    1.0000 </r>
       <r>    6.5591    0.0000 </r>
       <r>    6.5611    0.0000 </r>
       <r>    6.5651    0.0000 </r>
       <r>    6.9975    0.0000 </r>
       <r>    7.0056    0.0000 </r>
       <r>    7.0080    0.0000 </r>
       <r>    7.2323    0.0000 </r>
       <r>    7.4839    0.0000 </r>
       <r>    7.4904    0.0000 </r>
       <r>    7.4930    0.0000 </r>
       <r>    7.6164    0.0000 </r>
       <r>    7.6223    0.0000 </r>
       <r>    7.6241    0.0000 </r>
       <r>    7.7746    0.0000 </r>
       <r>    7.7809    0.0000 </r>
       <r>    7.7822    0.0000 </r>
       <r>    7.7987    0.0000 </r>
       <r>    7.8002    0.0000 </r>
       <r>    7.8032    0.0000 </r>
       <r>    8.0268    0.0000 </r>
       <r>    8.0282    0.0000 </r>
       <r>    8.0309    0.0000 </r>
       <r>    8.0337    0.0000 </r>
       <r>    8.0360    0.0000 </r>
       <r>    8.0376    0.0000 </r>
       <r>    8.0793    0.0000 </r>
       <r>    8.2907    0.0000 </r>
       <r>    8.2962    0.0000 </r>
       <r>    8.2974    0.0000 </r>
       <r>    8.4940    0.0000 </r>
       <r>    8.4983    0.0000 </r>
       <r>    8.5034    0.0000 </r>
       <r>    8.5058    0.0000 </r>
       <r>    8.5098    0.0000 </r>
       <r>    8.5152    0.0000 </r>
       <r>    8.5420    0.0000 </r>
      </set>
     </set>
    </set>
   </array>
  </eigenvalues>
  <separator name="orbital magnetization" >
   <v name="MAGDIPOLOUT">      0.00000000      0.00000000      0.00000000</v>
  </separator>
  <dos>
   <i name="efermi">      5.59667070 </i>
   <total>
    <array>
     <dimension dim="1">gridpoints</dimension>
     <dimension dim="2">spin</dimension>
     <field>energy</field>
     <field>total</field>
     <field>integrated</field>
     <set>
      <set comment="spin 1">
       <r>    -6.7201     0.0000     0.0000 </r>
       <r>    -6.6668     0.0000     0.0000 </r>
       <r>    -6.6135     0.0000     0.0000 </r>
       <r>    -6.5602     0.0000     0.0000 </r>
       <r>    -6.5069     0.0000     0.0000 </r>
       <r>    -6.4536     0.0000     0.0000 </r>
       <r>    -6.4003     0.0000     0.0000 </r>
       <r>    -6.3470     0.0000     0.0000 </r>
       <r>    -6.2937     0.0000     0.0000 </r>
       <r>    -6.2404     0.0000     0.0000 </r>
       <r>    -6.1871     0.0000     0.0000 </r>
       <r>    -6.1338     0.0013     0.0001 </r>
       <r>    -6.0804     0.2529     0.0136 </r>
       <r>    -6.0271     6.0570     0.3364 </r>
       <r>    -5.9738    20.2384     1.4152 </r>
       <r>    -5.9205    10.2206     1.9600 </r>
       <r>    -5.8672     0.7428     1.9996 </r>
       <r>    -5.8139     0.0069     2.0000 </r>
       <r>    -5.7606     0.0000     2.0000 </r>
       <r>    -5.7073     0.0000     2.0000 </r>
       <r>    -5.6540     0.0000     2.0000 </r>
       <r>    -5.6007     0.0070     2.0004 </r>
       <r>    -5.5474     1.1005     2.0590 </r>
       <r>    -5.4941    21.8372     3.2231 </r>
       <r>    -5.4408    61.5460     6.5038 </r>
       <r>    -5.3875    26.4264     7.9124 </r>
       <r>    -5.3342     1.6299     7.9993 </r>
       <r>    -5.2809     0.0128     8.0000 </r>
       <r>    -5.2276     0.0000     8.0000 </r>
       <r>    -5.1743     0.0000     8.0000 </r>
       <r>    -5.1210     0.0006     8.0000 </r>
       <r>    -5.0677     0.2209     8.0118 </r>
       <r>    -5.0143     9.2341     8.5040 </r>
       <r>    -4.9610    52.4679    11.3008 </r>
       <r>    -4.9077    44.8417    13.6911 </r>
       <r>    -4.8544     5.6981    13.9949 </r>
       <r>    -4.8011     0.0964    14.0000 </r>
       <r>    -4.7478     0.0002    14.0000 </r>
       <r>    -4.6945     0.0001    14.0000 </r>
       <r>    -4.6412     0.0385    14.0021 </r>
       <r>    -4.5879     2.1252    14.1153 </r>
       <r>    -4.5346    15.8099    14.9581 </r>
       <r>    -4.4813    26.1922    16.3543 </r>
       <r>    -4.4280    55.1964    19.2965 </r>
       <r>    -4.3747    44.9101    21.6904 </r>
       <r>    -4.3214     5.7104    21.9948 </r>
       <r>    -4.2681     0.0970    22.0000 </r>
       <r>    -4.2148     0.0002    22.0000 </r>
       <r>    -4.1615     0.0053    22.0003 </r>
       <r>    -4.1082     1.1286    22.0604 </r>
       <r>    -4.0549    30.5080    23.6867 </r>
       <r>    -4.0016   117.3908    29.9442 </r>
       <r>    -3.9482    69.8568    33.6679 </r>
       <r>    -3.8949     8.7872    34.1363 </r>
       <r>    -3.8416    32.6634    35.8774 </r>
       <r>    -3.7883    59.8448    39.0675 </r>
       <r>    -3.7350    16.8238    39.9642 </r>
       <r>    -3.6817     0.6674    39.9998 </r>
       <r>    -3.6284     0.0033    40.0000 </r>
       <r>    -3.5751     0.0000    40.0000 </r>
       <r>    -3.5218     0.0000    40.0000 </r>
       <r>    -3.4685     0.0044    40.0002 </r>
       <r>    -3.4152     0.8083    40.0433 </r>
       <r>    -3.3619    18.6012    41.0349 </r>
       <r>    -3.3086    60.6478    44.2677 </r>
       <r>    -3.2553    30.2732    45.8814 </r>
       <r>    -3.2020     2.2041    45.9989 </r>
       <r>    -3.1487     0.0209    46.0000 </r>
       <r>    -3.0954     0.0071    46.0004 </r>
       <r>    -3.0421     1.0989    46.0590 </r>
       <r>    -2.9888    21.7076    47.2161 </r>
       <r>    -2.9355    61.4065    50.4894 </r>
       <r>    -2.8821    27.8220    51.9724 </r>
       <r>    -2.8288    32.7325    53.7172 </r>
       <r>    -2.7755   117.7367    59.9932 </r>
       <r>    -2.7222    69.0580    63.6743 </r>
       <r>    -2.6689     6.0399    63.9962 </r>
       <r>    -2.6156     0.0704    64.0000 </r>
       <r>    -2.5623     0.0001    64.0000 </r>
       <r>    -2.5090     0.0000    64.0000 </r>
       <r>    -2.4557     0.0000    64.0000 </r>
       <r>    -2.4024     0.0000    64.0000 </r>
       <r>    -2.3491     0.0000    64.0000 </r>
       <r>    -2.2958     0.0000    64.0000 </r>
       <r>    -2.2425     0.0000    64.0000 </r>
       <r>    -2.1892     0.0000    64.0000 </r>
       <r>    -2.1359     0.0000    64.0000 </r>
       <r>    -2.0826     0.0000    64.0000 </r>
       <r>    -2.0293     0.0000    64.0000 </r>
       <r>    -1.9760     0.0000    64.0000 </r>
       <r>    -1.9227     0.0000    64.0000 </r>
       <r>    -1.8694     0.0000    64.0000 </r>
       <r>    -1.8161     0.0000    64.0000 </r>
       <r>    -1.7627     0.0000    64.0000 </r>
       <r>    -1.7094     0.0000    64.0000 </r>
       <r>    -1.6561     0.0000    64.0000 </r>
       <r>    -1.6028     0.0000    64.0000 </r>
       <r>    -1.5495     0.0000    64.0000 </r>
       <r>    -1.4962     0.0000    64.0000 </r>
       <r>    -1.4429     0.0000    64.0000 </r>
       <r>    -1.3896     0.0092    64.0005 </r>
       <r>    -1.3363     1.6132    64.0865 </r>
       <r>    -1.2830    36.6368    66.0394 </r>
       <r>    -1.2297   121.8779    72.5361 </r>
       <r>    -1.1764    86.9810    77.1726 </r>
       <r>    -1.1231    66.8347    80.7352 </r>
       <r>    -1.0698    39.1858    82.8240 </r>
       <r>    -1.0165    63.4421    86.2058 </r>
       <r>    -0.9632    67.0998    89.7826 </r>
       <r>    -0.9099    61.9895    93.0869 </r>
       <r>    -0.8566    16.4663    93.9646 </r>
       <r>    -0.8033     0.6599    93.9998 </r>
       <r>    -0.7500     0.0034    94.0000 </r>
       <r>    -0.6966     0.0000    94.0000 </r>
       <r>    -0.6433     0.0000    94.0000 </r>
       <r>    -0.5900     0.0000    94.0000 </r>
       <r>    -0.5367     0.0000    94.0000 </r>
       <r>    -0.4834     0.0000    94.0000 </r>
       <r>    -0.4301     0.0000    94.0000 </r>
       <r>    -0.3768     0.0036    94.0002 </r>
       <r>    -0.3235     0.4834    94.0260 </r>
       <r>    -0.2702     8.5537    94.4819 </r>
       <r>    -0.2169    32.9261    96.2370 </r>
       <r>    -0.1636    98.9367   101.5109 </r>
       <r>    -0.1103   103.3536   107.0201 </r>
       <r>    -0.0570    17.9439   107.9766 </r>
       <r>    -0.0037     0.4374   107.9999 </r>
       <r>     0.0496     0.0013   108.0000 </r>
       <r>     0.1029     0.0000   108.0000 </r>
       <r>     0.1562     0.0000   108.0000 </r>
       <r>     0.2095     0.0000   108.0000 </r>
       <r>     0.2628     0.0000   108.0000 </r>
       <r>     0.3161     0.0000   108.0000 </r>
       <r>     0.3695     0.0000   108.0000 </r>
       <r>     0.4228     0.0000   108.0000 </r>
       <r>     0.4761     0.0000   108.0000 </r>
       <r>     0.5294     0.0000   108.0000 </r>
       <r>     0.5827     0.0126   108.0007 </r>
       <r>     0.6360     1.5706   108.0844 </r>
       <r>     0.6893    25.6136   109.4497 </r>
       <r>     0.7426    61.3133   112.7180 </r>
       <r>     0.7959    22.8084   113.9338 </r>
       <r>     0.8492     1.2328   113.9995 </r>
       <r>     0.9025     0.0112   114.0001 </r>
       <r>     0.9558     0.5644   114.0302 </r>
       <r>     1.0091    15.4342   114.8529 </r>
       <r>     1.0624    59.0878   118.0026 </r>
       <r>     1.1157    34.4860   119.8409 </r>
       <r>     1.1690     2.9519   119.9982 </r>
       <r>     1.2223     0.0330   120.0000 </r>
       <r>     1.2756     0.0000   120.0000 </r>
       <r>     1.3289     0.0000   120.0000 </r>
       <r>     1.3822     0.0000   120.0000 </r>
       <r>     1.4356     0.0000   120.0000 </r>
       <r>     1.4889     0.0002   120.0000 </r>
       <r>     1.5422     0.1368   120.0073 </r>
       <r>     1.5955     9.2679   120.5013 </r>
       <r>     1.6488    85.9362   125.0822 </r>
       <r>     1.7021   145.8392   132.8561 </r>
       <r>     1.7554    80.7948   137.1629 </r>
       <r>     1.8087    15.1963   137.9729 </r>
       <r>     1.8620     0.5061   137.9999 </r>
       <r>     1.9153     0.0022   138.0000 </r>
       <r>     1.9686     0.0000   138.0000 </r>
       <r>     2.0219     0.0000   138.0000 </r>
       <r>     2.0752     0.0000   138.0000 </r>
       <r>     2.1285     0.0048   138.0003 </r>
       <r>     2.1818     0.8578   138.0460 </r>
       <r>     2.2351    19.2749   139.0734 </r>
       <r>     2.2884    63.2822   142.4467 </r>
       <r>     2.3417    74.7033   146.4287 </r>
       <r>     2.3950   146.1452   154.2190 </r>
       <r>     2.4483   113.8228   160.2863 </r>
       <r>     2.5017    30.3696   161.9052 </r>
       <r>     2.5550     1.7645   161.9992 </r>
       <r>     2.6083     0.0548   162.0022 </r>
       <r>     2.6616     4.3213   162.2325 </r>
       <r>     2.7149    60.0158   165.4316 </r>
       <r>     2.7682   121.4536   171.9057 </r>
       <r>     2.8215    37.6268   173.9114 </r>
       <r>     2.8748     1.6826   174.0011 </r>
       <r>     2.9281     3.3848   174.1815 </r>
       <r>     2.9814    51.7195   176.9384 </r>
       <r>     3.0347   121.2133   183.3997 </r>
       <r>     3.0880    46.0881   185.8564 </r>
       <r>     3.1413     2.6723   185.9989 </r>
       <r>     3.1946     0.0212   186.0000 </r>
       <r>     3.2479     0.0806   186.0043 </r>
       <r>     3.3012     5.9137   186.3195 </r>
       <r>     3.3545    63.6681   189.7134 </r>
       <r>     3.4078   121.2108   196.1745 </r>
       <r>     3.4611    81.5743   200.5228 </r>
       <r>     3.5144    55.2476   203.4678 </r>
       <r>     3.5678     9.7416   203.9871 </r>
       <r>     3.6211     0.3277   204.0045 </r>
       <r>     3.6744     6.9224   204.3735 </r>
       <r>     3.7277    79.7609   208.6252 </r>
       <r>     3.7810   164.9996   217.4205 </r>
       <r>     3.8343    77.4891   221.5510 </r>
       <r>     3.8876     8.2723   221.9920 </r>
       <r>     3.9409     0.2437   222.0050 </r>
       <r>     3.9942     3.6937   222.2019 </r>
       <r>     4.0475    26.6103   223.6203 </r>
       <r>     4.1008    65.3018   227.1012 </r>
       <r>     4.1541    47.9691   229.6582 </r>
       <r>     4.2074     6.3069   229.9944 </r>
       <r>     4.2607     1.4358   230.0709 </r>
       <r>     4.3140    24.3861   231.3708 </r>
       <r>     4.3673    76.8398   235.4668 </r>
       <r>     4.4206    82.8705   239.8842 </r>
       <r>     4.4739    36.9383   241.8532 </r>
       <r>     4.5272    14.5572   242.6292 </r>
       <r>     4.5805    40.0050   244.7616 </r>
       <r>     4.6338    21.5148   245.9085 </r>
       <r>     4.6872     1.6994   245.9991 </r>
       <r>     4.7405     0.0326   246.0008 </r>
       <r>     4.7938     1.7810   246.0957 </r>
       <r>     4.8471    27.3360   247.5529 </r>
       <r>     4.9004    61.2282   250.8167 </r>
       <r>     4.9537    21.1440   251.9437 </r>
       <r>     5.0070     1.0489   251.9996 </r>
       <r>     5.0603     0.0067   252.0000 </r>
       <r>     5.1136     0.0000   252.0000 </r>
       <r>     5.1669     0.0000   252.0000 </r>
       <r>     5.2202     0.0102   252.0005 </r>
       <r>     5.2735     1.1989   252.0645 </r>
       <r>     5.3268    18.2895   253.0394 </r>
       <r>     5.3801    40.7883   255.2136 </r>
       <r>     5.4334    14.0516   255.9626 </r>
       <r>     5.4867     0.6969   255.9998 </r>
       <r>     5.5400     0.0044   256.0000 </r>
       <r>     5.5933     0.0000   256.0000 </r>
       <r>     5.6466     0.0000   256.0000 </r>
       <r>     5.6999     0.0000   256.0000 </r>
       <r>     5.7533     0.0000   256.0000 </r>
       <r>     5.8066     0.0000   256.0000 </r>
       <r>     5.8599     0.0000   256.0000 </r>
       <r>     5.9132     0.0000   256.0000 </r>
       <r>     5.9665     0.0000   256.0000 </r>
       <r>     6.0198     0.0000   256.0000 </r>
       <r>     6.0731     0.0000   256.0000 </r>
       <r>     6.1264     0.0000   256.0000 </r>
       <r>     6.1797     0.0000   256.0000 </r>
       <r>     6.2330     0.0000   256.0000 </r>
       <r>     6.2863     0.0000   256.0000 </r>
       <r>     6.3396     0.0000   256.0000 </r>
       <r>     6.3929     0.0001   256.0000 </r>
       <r>     6.4462     0.0537   256.0029 </r>
       <r>     6.4995     3.9878   256.2154 </r>
       <r>     6.5528    39.0750   258.2983 </r>
       <r>     6.6061    56.6079   261.3158 </r>
       <r>     6.6594    12.4546   261.9797 </r>
       <r>     6.7127     0.3792   261.9999 </r>
       <r>     6.7660     0.0014   262.0000 </r>
       <r>     6.8194     0.0000   262.0000 </r>
       <r>     6.8727     0.0120   262.0006 </r>
       <r>     6.9260     1.5315   262.0823 </r>
       <r>     6.9793    25.4299   263.4378 </r>
       <r>     7.0326    61.4424   266.7130 </r>
       <r>     7.0859    22.9049   267.9339 </r>
       <r>     7.1392     1.3718   268.0071 </r>
       <r>     7.1925     4.4398   268.2437 </r>
       <r>     7.2458    19.1996   269.2672 </r>
       <r>     7.2991    12.5371   269.9355 </r>
       <r>     7.3524     1.2016   269.9995 </r>
       <r>     7.4057     0.9557   270.0505 </r>
       <r>     7.4590    20.0329   271.1183 </r>
       <r>     7.5123    61.1672   274.3788 </r>
       <r>     7.5656    35.7069   276.2822 </r>
       <r>     7.6189    50.2126   278.9588 </r>
       <r>     7.6722    49.4537   281.5949 </r>
       <r>     7.7255    16.4014   282.4692 </r>
       <r>     7.7788    75.9765   286.5191 </r>
       <r>     7.8321   110.8738   292.4292 </r>
       <r>     7.8855    28.3222   293.9389 </r>
       <r>     7.9388     2.2638   294.0596 </r>
       <r>     7.9921    30.6719   295.6946 </r>
       <r>     8.0454   123.0181   302.2520 </r>
       <r>     8.0987    89.7955   307.0386 </r>
       <r>     8.1520    17.0908   307.9496 </r>
       <r>     8.2053     1.5779   308.0337 </r>
       <r>     8.2586    16.5118   308.9139 </r>
       <r>     8.3119    59.7781   312.1003 </r>
       <r>     8.3652    32.9723   313.8579 </r>
       <r>     8.4185     4.5843   314.1023 </r>
       <r>     8.4718    40.0428   316.2368 </r>
       <r>     8.5251   130.7034   323.2039 </r>
       <r>     8.5784    79.5353   327.4435 </r>
       <r>     8.6317    10.1732   327.9858 </r>
       <r>     8.6850     0.2647   327.9999 </r>
       <r>     8.7383     0.0011   328.0000 </r>
       <r>     8.7916     0.0000   328.0000 </r>
       <r>     8.8449     0.0000   328.0000 </r>
       <r>     8.8982     0.0000   328.0000 </r>
       <r>     8.9516     0.0000   328.0000 </r>
       <r>     9.0049     0.0000   328.0000 </r>
       <r>     9.0582     0.0000   328.0000 </r>
       <r>     9.1115     0.0000   328.0000 </r>
       <r>     9.1648     0.0000   328.0000 </r>
       <r>     9.2181     0.0000   328.0000 </r>
       <r>     9.2714     0.0000   328.0000 </r>
      </set>
     </set>
    </array>
   </total>
  </dos>
 </calculation>
 <structure name="finalpos" >
  <crystal>
   <varray name="basis" >
    <v>      10.93252578       0.00000000       0.00000000 </v>
    <v>       0.00000000      10.93252578       0.00000000 </v>
    <v>       0.00000000       0.00000000      10.93252578 </v>
   </varray>
   <i name="volume">   1306.65679237 </i>
   <varray name="rec_basis" >
    <v>       0.09147017       0.00000000       0.00000000 </v>
    <v>       0.00000000       0.09147017       0.00000000 </v>
    <v>       0.00000000       0.00000000       0.09147017 </v>
   </varray>
  </crystal>
  <varray name="positions" >
   <v>       0.44024411       0.43750000       0.43750000 </v>
   <v>       0.93750000       0.43750000       0.43750000 </v>
   <v>       0.43750000       0.93750000       0.43750000 </v>
   <v>       0.93750000       0.93750000       0.43750000 </v>
   <v>       0.43750000       0.43750000       0.93750000 </v>
   <v>       0.93750000       0.43750000       0.93750000 </v>
   <v>       0.43750000       0.93750000       0.93750000 </v>
   <v>       0.93750000       0.93750000       0.93750000 </v>
   <v>       0.43750000       0.18750000       0.18750000 </v>
   <v>       0.93750000       0.18750000       0.18750000 </v>
   <v>       0.43750000       0.68750000       0.18750000 </v>
   <v>       0.93750000       0.68750000       0.18750000 </v>
   <v>       0.43750000       0.18750000       0.68750000 </v>
   <v>       0.93750000       0.18750000       0.68750000 </v>
   <v>       0.43750000       0.68750000       0.68750000 </v>
   <v>       0.93750000       0.68750000       0.68750000 </v>
   <v>       0.18750000       0.44024411       0.18750000 </v>
   <v>       0.68750000       0.43750000       0.18750000 </v>
   <v>       0.18750000       0.93750000       0.18750000 </v>
   <v>       0.68750000       0.93750000       0.18750000 </v>
   <v>       0.18750000       0.43750000       0.68750000 </v>
   <v>       0.68750000       0.43750000       0.68750000 </v>
   <v>       0.18750000       0.93750000       0.68750000 </v>
   <v>       0.68750000       0.93750000       0.68750000 </v>
   <v>       0.18750000       0.18750000       0.43750000 </v>
   <v>       0.68750000       0.18750000       0.43750000 </v>
   <v>       0.18750000       0.68750000       0.43750000 </v>
   <v>       0.68750000       0.68750000       0.43750000 </v>
   <v>       0.18750000       0.18750000       0.93750000 </v>
   <v>       0.68750000       0.18750000       0.93750000 </v>
   <v>       0.18750000       0.68750000       0.93750000 </v>
   <v>       0.68750000       0.68750000       0.93750000 </v>
   <v>       0.06250000       0.06250000       0.06250000 </v>
   <v>       0.56250000       0.06250000       0.06250000 </v>
   <v>       0.06250000       0.56250000       0.06250000 </v>
   <v>       0.56250000       0.56250000       0.06250000 </v>
   <v>       0.06250000       0.06250000       0.56250000 </v>
   <v>       0.56250000       0.06250000       0.56250000 </v>
   <v>       0.06250000       0.56250000       0.56250000 </v>
   <v>       0.56250000       0.56250000       0.56250000 </v>
   <v>       0.06250000       0.31250000       0.31250000 </v>
   <v>       0.56250000       0.31250000       0.31250000 </v>
   <v>       0.06250000       0.81250000       0.31250000 </v>
   <v>       0.56250000       0.81250000       0.31250000 </v>
   <v>       0.06250000       0.31250000       0.81250000 </v>
   <v>       0.56250000       0.31250000       0.81250000 </v>
   <v>       0.06250000       0.81250000       0.81250000 </v>
   <v>       0.56250000       0.81250000       0.81250000 </v>
   <v>       0.31250000       0.06250000       0.31250000 </v>
   <v>       0.81250000       0.06250000       0.31250000 </v>
   <v>       0.31250000       0.56250000       0.31250000 </v>
   <v>       0.81250000       0.56250000       0.31250000 </v>
   <v>       0.31250000       0.06250000       0.81250000 </v>
   <v>       0.81250000       0.06250000       0.81250000 </v>
   <v>       0.31250000       0.56250000       0.81250000 </v>
   <v>       0.81250000       0.56250000       0.81250000 </v>
   <v>       0.31250000       0.31250000       0.06250000 </v>
   <v>       0.81250000       0.31250000       0.06250000 </v>
   <v>       0.31250000       0.81250000       0.06250000 </v>
   <v>       0.81250000       0.81250000       0.06250000 </v>
   <v>       0.31250000       0.31250000       0.56250000 </v>
   <v>       0.81250000       0.31250000       0.56250000 </v>
   <v>       0.31250000       0.81250000       0.56250000 </v>
   <v>       0.81250000       0.81250000       0.56250000 </v>
  </varray>
 </structure>
</modeling>
