
     Program PWSCF v.5.3.0 (svn rev. 11974) starts on  3Feb2016 at 13:32:22 

     This program is part of the open-source Quantum ESPRESSO suite
     for quantum simulation of materials; please cite
         "P. Giannozzi et al., J. Phys.:Condens. Matter 21 395502 (2009);
          URL http://www.quantum-espresso.org", 
     in publications or presentations arising from this work. More details at
     http://www.quantum-espresso.org/quote

     Parallel version (MPI), running on    16 processors
     R & G space division:  proc/nbgrp/npool/nimage =      16
     Reading input from Si.in

     Current dimensions of program PWSCF are:
     Max number of different atomic species (ntypx) = 10
     Max number of k-points (npk) =  40000
     Max angular momentum in pseudopotentials (lmaxx) =  3
               file Si.pbe-n-kjpaw_psl.0.1.UPF: wavefunction(s)  3S renormalized

     Subspace diagonalization in iterative solution of the eigenvalue problem:
     one sub-group per k-point group (pool) will be used
     scalapack distributed-memory algorithm (size of sub-group:  2*  2 procs)

 
     Parallelization info
     --------------------
     sticks:   dense  smooth     PW     G-vecs:    dense   smooth      PW
     Min         424     424    109                26332    26332    3467
     Max         425     425    110                26336    26336    3472
     Sum        6785    6785   1757               421349   421349   55515
 


     bravais-lattice index     =            0
     lattice parameter (alat)  =      20.6591  a.u.
     unit-cell volume          =    8817.2783 (a.u.)^3
     number of atoms/cell      =           64
     number of atomic types    =            1
     number of electrons       =       256.00
     number of Kohn-Sham states=          154
     kinetic-energy cutoff     =      50.0000  Ry
     charge density cutoff     =     200.0000  Ry
     convergence threshold     =      1.0E-09
     mixing beta               =       0.7000
     number of iterations used =            8  plain     mixing
     Exchange-correlation      =  SLA  PW   PBX  PBC ( 1  4  3  4 0 0)

     celldm(1)=  20.659106  celldm(2)=   0.000000  celldm(3)=   0.000000
     celldm(4)=   0.000000  celldm(5)=   0.000000  celldm(6)=   0.000000

     crystal axes: (cart. coord. in units of alat)
               a(1) = (   1.000000   0.000000   0.000000 )  
               a(2) = (   0.000000   1.000000   0.000000 )  
               a(3) = (   0.000000   0.000000   1.000000 )  

     reciprocal axes: (cart. coord. in units 2 pi/alat)
               b(1) = (  1.000000  0.000000  0.000000 )  
               b(2) = (  0.000000  1.000000  0.000000 )  
               b(3) = (  0.000000  0.000000  1.000000 )  


     PseudoPot. # 1 for Si read from file:
     /home/togo/espresso/pseudo/Si.pbe-n-kjpaw_psl.0.1.UPF
     MD5 check sum: b9d333a40e496bef61db012f150758bf
     Pseudo is Projector augmented-wave + core cor, Zval =  4.0
     Generated using "atomic" code by A. Dal Corso  v.5.0.2 svn rev. 9415
     Shape of augmentation charge: PSQ
     Using radial grid of 1141 points,  4 beta functions with: 
                l(1) =   0
                l(2) =   0
                l(3) =   1
                l(4) =   1
     Q(r) pseudized with 0 coefficients 


     atomic species   valence    mass     pseudopotential
        Si             4.00    28.08550     Si( 1.00)

      2 Sym. Ops. (no inversion) found



   Cartesian axes

     site n.     atom                  positions (alat units)
         1           Si  tau(   1) = (   0.4404043   0.4375000   0.4375000  )
         2           Si  tau(   2) = (   0.9375000   0.4375000   0.4375000  )
         3           Si  tau(   3) = (   0.4375000   0.9375000   0.4375000  )
         4           Si  tau(   4) = (   0.9375000   0.9375000   0.4375000  )
         5           Si  tau(   5) = (   0.4375000   0.4375000   0.9375000  )
         6           Si  tau(   6) = (   0.9375000   0.4375000   0.9375000  )
         7           Si  tau(   7) = (   0.4375000   0.9375000   0.9375000  )
         8           Si  tau(   8) = (   0.9375000   0.9375000   0.9375000  )
         9           Si  tau(   9) = (   0.4375000   0.1875000   0.1875000  )
        10           Si  tau(  10) = (   0.9345957   0.1875000   0.1875000  )
        11           Si  tau(  11) = (   0.4375000   0.6875000   0.1875000  )
        12           Si  tau(  12) = (   0.9375000   0.6875000   0.1875000  )
        13           Si  tau(  13) = (   0.4375000   0.1875000   0.6875000  )
        14           Si  tau(  14) = (   0.9375000   0.1875000   0.6875000  )
        15           Si  tau(  15) = (   0.4375000   0.6875000   0.6875000  )
        16           Si  tau(  16) = (   0.9375000   0.6875000   0.6875000  )
        17           Si  tau(  17) = (   0.1875000   0.4375000   0.1875000  )
        18           Si  tau(  18) = (   0.6875000   0.4375000   0.1875000  )
        19           Si  tau(  19) = (   0.1875000   0.9375000   0.1875000  )
        20           Si  tau(  20) = (   0.6875000   0.9375000   0.1875000  )
        21           Si  tau(  21) = (   0.1875000   0.4375000   0.6875000  )
        22           Si  tau(  22) = (   0.6875000   0.4375000   0.6875000  )
        23           Si  tau(  23) = (   0.1875000   0.9375000   0.6875000  )
        24           Si  tau(  24) = (   0.6875000   0.9375000   0.6875000  )
        25           Si  tau(  25) = (   0.1875000   0.1875000   0.4375000  )
        26           Si  tau(  26) = (   0.6875000   0.1875000   0.4375000  )
        27           Si  tau(  27) = (   0.1875000   0.6875000   0.4375000  )
        28           Si  tau(  28) = (   0.6875000   0.6875000   0.4375000  )
        29           Si  tau(  29) = (   0.1875000   0.1875000   0.9375000  )
        30           Si  tau(  30) = (   0.6875000   0.1875000   0.9375000  )
        31           Si  tau(  31) = (   0.1875000   0.6875000   0.9375000  )
        32           Si  tau(  32) = (   0.6875000   0.6875000   0.9375000  )
        33           Si  tau(  33) = (   0.0625000   0.0625000   0.0625000  )
        34           Si  tau(  34) = (   0.5625000   0.0625000   0.0625000  )
        35           Si  tau(  35) = (   0.0625000   0.5625000   0.0625000  )
        36           Si  tau(  36) = (   0.5625000   0.5625000   0.0625000  )
        37           Si  tau(  37) = (   0.0625000   0.0625000   0.5625000  )
        38           Si  tau(  38) = (   0.5625000   0.0625000   0.5625000  )
        39           Si  tau(  39) = (   0.0625000   0.5625000   0.5625000  )
        40           Si  tau(  40) = (   0.5625000   0.5625000   0.5625000  )
        41           Si  tau(  41) = (   0.0625000   0.3125000   0.3125000  )
        42           Si  tau(  42) = (   0.5625000   0.3125000   0.3125000  )
        43           Si  tau(  43) = (   0.0625000   0.8125000   0.3125000  )
        44           Si  tau(  44) = (   0.5625000   0.8125000   0.3125000  )
        45           Si  tau(  45) = (   0.0625000   0.3125000   0.8125000  )
        46           Si  tau(  46) = (   0.5625000   0.3125000   0.8125000  )
        47           Si  tau(  47) = (   0.0625000   0.8125000   0.8125000  )
        48           Si  tau(  48) = (   0.5625000   0.8125000   0.8125000  )
        49           Si  tau(  49) = (   0.3125000   0.0625000   0.3125000  )
        50           Si  tau(  50) = (   0.8125000   0.0625000   0.3125000  )
        51           Si  tau(  51) = (   0.3125000   0.5625000   0.3125000  )
        52           Si  tau(  52) = (   0.8125000   0.5625000   0.3125000  )
        53           Si  tau(  53) = (   0.3125000   0.0625000   0.8125000  )
        54           Si  tau(  54) = (   0.8125000   0.0625000   0.8125000  )
        55           Si  tau(  55) = (   0.3125000   0.5625000   0.8125000  )
        56           Si  tau(  56) = (   0.8125000   0.5625000   0.8125000  )
        57           Si  tau(  57) = (   0.3125000   0.3125000   0.0625000  )
        58           Si  tau(  58) = (   0.8125000   0.3125000   0.0625000  )
        59           Si  tau(  59) = (   0.3125000   0.8125000   0.0625000  )
        60           Si  tau(  60) = (   0.8125000   0.8125000   0.0625000  )
        61           Si  tau(  61) = (   0.3125000   0.3125000   0.5625000  )
        62           Si  tau(  62) = (   0.8125000   0.3125000   0.5625000  )
        63           Si  tau(  63) = (   0.3125000   0.8125000   0.5625000  )
        64           Si  tau(  64) = (   0.8125000   0.8125000   0.5625000  )

     number of k points=     3  gaussian smearing, width (Ry)=  0.0100
                       cart. coord. in units 2pi/alat
        k(    1) = (   0.2500000   0.2500000   0.2500000), wk =   0.5000000
        k(    2) = (  -0.2500000   0.2500000  -0.2500000), wk =   1.0000000
        k(    3) = (   0.2500000  -0.2500000  -0.2500000), wk =   0.5000000

     Dense  grid:   421349 G-vectors     FFT dimensions: (  96,  96,  96)

     Largest allocated arrays     est. size (Mb)     dimensions
        Kohn-Sham Wavefunctions         7.72 Mb     (    3285,  154)
        NL pseudopotentials            25.66 Mb     (    3285,  512)
        Each V/rho on FFT grid          0.84 Mb     (   55296)
        Each G-vector array             0.20 Mb     (   26336)
        G-vector shells                 0.01 Mb     (    1719)
     Largest temporary arrays     est. size (Mb)     dimensions
        Auxiliary wavefunctions        30.88 Mb     (    3285,  616)
        Each subspace H/S matrix        1.45 Mb     (     308,  308)
        Each <psi_i|beta_j> matrix      1.20 Mb     (     512,  154)
        Arrays for rho mixing           6.75 Mb     (   55296,    8)

     Check: negative/imaginary core charge=   -0.000001    0.000000

     Initial potential from superposition of free atoms

     starting charge  255.96421, renormalised to  256.00000
     Starting wfc are  256 randomized atomic wfcs
     Checking if some PAW data can be deallocated... 

     total cpu time spent up to now is        7.8 secs

     per-process dynamical memory:   115.9 Mb

     Self-consistent Calculation

     iteration #  1     ecut=    50.00 Ry     beta=0.70
     Davidson diagonalization with overlap
     ethr =  1.00E-02,  avg # of iterations =  3.0

     Threshold (ethr) on eigenvalues was too large:
     Diagonalizing with lowered threshold

     Davidson diagonalization with overlap
     ethr =  7.00E-04,  avg # of iterations =  1.0

     total cpu time spent up to now is       36.8 secs

     total energy              =   -2990.45694985 Ry
     Harris-Foulkes estimate   =   -2990.87649954 Ry
     estimated scf accuracy    <       1.77330400 Ry

     iteration #  2     ecut=    50.00 Ry     beta=0.70
     Davidson diagonalization with overlap
     ethr =  6.93E-04,  avg # of iterations =  1.0

     total cpu time spent up to now is       47.9 secs

     total energy              =   -2990.52361463 Ry
     Harris-Foulkes estimate   =   -2990.52745414 Ry
     estimated scf accuracy    <       0.07629148 Ry

     iteration #  3     ecut=    50.00 Ry     beta=0.70
     Davidson diagonalization with overlap
     ethr =  2.98E-05,  avg # of iterations = 10.7

     total cpu time spent up to now is       73.5 secs

     total energy              =   -2990.53061666 Ry
     Harris-Foulkes estimate   =   -2990.53135598 Ry
     estimated scf accuracy    <       0.00190911 Ry

     iteration #  4     ecut=    50.00 Ry     beta=0.70
     Davidson diagonalization with overlap
     ethr =  7.46E-07,  avg # of iterations =  6.7

     total cpu time spent up to now is      103.1 secs

     total energy              =   -2990.53053833 Ry
     Harris-Foulkes estimate   =   -2990.53258050 Ry
     estimated scf accuracy    <       0.00633406 Ry

     iteration #  5     ecut=    50.00 Ry     beta=0.70
     Davidson diagonalization with overlap
     ethr =  7.46E-07,  avg # of iterations =  4.0

     total cpu time spent up to now is      122.1 secs

     total energy              =   -2990.53148754 Ry
     Harris-Foulkes estimate   =   -2990.53159394 Ry
     estimated scf accuracy    <       0.00030428 Ry

     iteration #  6     ecut=    50.00 Ry     beta=0.70
     Davidson diagonalization with overlap
     ethr =  1.19E-07,  avg # of iterations =  3.0

     total cpu time spent up to now is      136.8 secs

     total energy              =   -2990.53154360 Ry
     Harris-Foulkes estimate   =   -2990.53155920 Ry
     estimated scf accuracy    <       0.00004738 Ry

     iteration #  7     ecut=    50.00 Ry     beta=0.70
     Davidson diagonalization with overlap
     ethr =  1.85E-08,  avg # of iterations =  2.0

     total cpu time spent up to now is      150.7 secs

     total energy              =   -2990.53155172 Ry
     Harris-Foulkes estimate   =   -2990.53155274 Ry
     estimated scf accuracy    <       0.00000250 Ry

     iteration #  8     ecut=    50.00 Ry     beta=0.70
     Davidson diagonalization with overlap
     ethr =  9.78E-10,  avg # of iterations =  3.0

     total cpu time spent up to now is      168.6 secs

     total energy              =   -2990.53155255 Ry
     Harris-Foulkes estimate   =   -2990.53155273 Ry
     estimated scf accuracy    <       0.00000037 Ry

     iteration #  9     ecut=    50.00 Ry     beta=0.70
     Davidson diagonalization with overlap
     ethr =  1.45E-10,  avg # of iterations =  3.0

     total cpu time spent up to now is      183.8 secs

     total energy              =   -2990.53155253 Ry
     Harris-Foulkes estimate   =   -2990.53155265 Ry
     estimated scf accuracy    <       0.00000021 Ry

     iteration # 10     ecut=    50.00 Ry     beta=0.70
     Davidson diagonalization with overlap
     ethr =  8.08E-11,  avg # of iterations =  2.0

     total cpu time spent up to now is      197.1 secs

     total energy              =   -2990.53155253 Ry
     Harris-Foulkes estimate   =   -2990.53155257 Ry
     estimated scf accuracy    <       0.00000003 Ry

     iteration # 11     ecut=    50.00 Ry     beta=0.70
     Davidson diagonalization with overlap
     ethr =  1.27E-11,  avg # of iterations =  2.0

     total cpu time spent up to now is      211.3 secs

     total energy              =   -2990.53155254 Ry
     Harris-Foulkes estimate   =   -2990.53155254 Ry
     estimated scf accuracy    <          1.4E-09 Ry

     iteration # 12     ecut=    50.00 Ry     beta=0.70
     Davidson diagonalization with overlap
     ethr =  5.39E-13,  avg # of iterations =  3.0

     total cpu time spent up to now is      230.6 secs

     End of self-consistent calculation

          k = 0.2500 0.2500 0.2500 ( 52563 PWs)   bands (ev):

    -5.6251  -5.0996  -5.0962  -5.0933  -4.5997  -4.5966  -4.5938  -4.1632
    -4.0667  -4.0633  -4.0601  -3.6562  -3.6490  -3.6482  -3.6474  -3.6445
    -3.6370  -3.4571  -3.4548  -3.4523  -2.9624  -2.9585  -2.9548  -2.5942
    -2.5893  -2.5843  -2.4282  -2.4233  -2.4213  -2.4210  -2.4179  -2.4129
    -0.8840  -0.8815  -0.8785  -0.8784  -0.8746  -0.8730  -0.7863  -0.7802
    -0.7745  -0.6651  -0.6624  -0.6592  -0.5811  -0.5762  -0.5708   0.1263
     0.2028   0.2068   0.2101   0.2106   0.2151   0.2191   1.0832   1.0853
     1.0877   1.4166   1.4182   1.4201   2.0243   2.0272   2.0290   2.0304
     2.0315   2.0324   2.0860   2.0880   2.0908   2.6370   2.6402   2.6430
     2.7375   2.7386   2.7423   2.7429   2.7482   2.7496   2.7944   2.7961
     2.7987   3.1039   3.1054   3.1068   3.1074   3.1086   3.1134   3.3698
     3.3720   3.3733   3.3843   3.3868   3.3877   3.7328   3.7348   3.7356
     3.7537   3.7563   3.7601   3.8376   3.8396   3.8413   4.1100   4.1111
     4.1130   4.1138   4.1158   4.1216   4.1513   4.1544   4.1555   4.4127
     4.4679   4.4716   4.4737   4.7121   4.7146   4.7169   4.7753   4.7787
     4.7827   4.9362   4.9363   5.2403   5.2438   5.2467   5.7239   5.7241
     6.9354   6.9363   6.9369   7.3739   7.3767   7.3795   7.5987   7.8597
     7.8619   7.8639   7.9884   7.9918   7.9948   8.1485   8.1514   8.1534
     8.1664   8.1690   8.1726   8.3977   8.3996   8.4010   8.4023   8.4058
     8.4082   8.4480

          k =-0.2500 0.2500-0.2500 ( 52563 PWs)   bands (ev):

    -5.6251  -5.1000  -5.0963  -5.0927  -4.6004  -4.5968  -4.5931  -4.1630
    -4.0670  -4.0634  -4.0598  -3.6546  -3.6494  -3.6477  -3.6463  -3.6446
    -3.6399  -3.4571  -3.4548  -3.4523  -2.9625  -2.9586  -2.9546  -2.5942
    -2.5893  -2.5844  -2.4281  -2.4231  -2.4212  -2.4203  -2.4184  -2.4132
    -0.8875  -0.8815  -0.8789  -0.8775  -0.8750  -0.8694  -0.7864  -0.7803
    -0.7748  -0.6649  -0.6623  -0.6592  -0.5836  -0.5762  -0.5685   0.1263
     0.2016   0.2062   0.2097   0.2117   0.2156   0.2197   1.0782   1.0854
     1.0924   1.4162   1.4184   1.4205   2.0250   2.0266   2.0289   2.0295
     2.0313   2.0330   2.0860   2.0884   2.0907   2.6370   2.6402   2.6431
     2.7388   2.7398   2.7418   2.7445   2.7460   2.7467   2.7937   2.7968
     2.8002   3.1016   3.1049   3.1070   3.1082   3.1104   3.1134   3.3697
     3.3720   3.3734   3.3844   3.3861   3.3880   3.7301   3.7346   3.7386
     3.7533   3.7563   3.7605   3.8366   3.8394   3.8426   4.1076   4.1113
     4.1138   4.1147   4.1168   4.1211   4.1503   4.1535   4.1572   4.4133
     4.4680   4.4712   4.4737   4.7112   4.7143   4.7177   4.7726   4.7787
     4.7856   4.9359   4.9363   5.2394   5.2435   5.2481   5.7239   5.7241
     6.9354   6.9363   6.9369   7.3711   7.3768   7.3823   7.5987   7.8574
     7.8619   7.8663   7.9884   7.9918   7.9948   8.1475   8.1515   8.1550
     8.1664   8.1691   8.1721   8.3954   8.3975   8.4011   8.4039   8.4072
     8.4093   8.4480

          k = 0.2500-0.2500-0.2500 ( 52563 PWs)   bands (ev):

    -5.6251  -5.0997  -5.0962  -5.0931  -4.5999  -4.5966  -4.5936  -4.1633
    -4.0669  -4.0633  -4.0599  -3.6575  -3.6495  -3.6465  -3.6458  -3.6450
    -3.6382  -3.4571  -3.4548  -3.4524  -2.9626  -2.9585  -2.9546  -2.5942
    -2.5893  -2.5843  -2.4283  -2.4237  -2.4204  -2.4204  -2.4184  -2.4132
    -0.8838  -0.8819  -0.8789  -0.8776  -0.8751  -0.8728  -0.7861  -0.7802
    -0.7746  -0.6649  -0.6624  -0.6594  -0.5807  -0.5762  -0.5712   0.1263
     0.2027   0.2062   0.2109   0.2113   0.2146   0.2188   1.0833   1.0853
     1.0876   1.4166   1.4182   1.4200   2.0262   2.0269   2.0273   2.0295
     2.0312   2.0336   2.0860   2.0880   2.0908   2.6370   2.6402   2.6430
     2.7364   2.7384   2.7436   2.7442   2.7477   2.7488   2.7941   2.7961
     2.7989   3.1019   3.1067   3.1077   3.1084   3.1096   3.1113   3.3696
     3.3720   3.3735   3.3842   3.3867   3.3877   3.7322   3.7348   3.7366
     3.7528   3.7563   3.7606   3.8377   3.8396   3.8412   4.1075   4.1126
     4.1147   4.1153   4.1165   4.1186   4.1514   4.1545   4.1555   4.4127
     4.4679   4.4717   4.4737   4.7122   4.7146   4.7168   4.7754   4.7787
     4.7826   4.9362   4.9363   5.2404   5.2438   5.2466   5.7239   5.7241
     6.9354   6.9363   6.9369   7.3739   7.3767   7.3795   7.5987   7.8596
     7.8619   7.8640   7.9885   7.9918   7.9947   8.1481   8.1514   8.1536
     8.1671   8.1690   8.1721   8.3964   8.3993   8.4029   8.4040   8.4055
     8.4064   8.4480

     the Fermi energy is     6.3273 ev

!    total energy              =   -2990.53155254 Ry
     Harris-Foulkes estimate   =   -2990.53155254 Ry
     estimated scf accuracy    <          8.8E-10 Ry

     total all-electron energy =    -37124.667106 Ry

     The total energy is the sum of the following terms:

     one-electron contribution =     178.60625130 Ry
     hartree contribution      =      35.70157924 Ry
     xc contribution           =    -391.44199578 Ry
     ewald contribution        =    -534.00608258 Ry
     one-center paw contrib.   =   -2279.39130471 Ry
     smearing contrib. (-TS)   =       0.00000000 Ry

     convergence has been achieved in  12 iterations

     Forces acting on atoms (Ry/au):

     atom    1 type  1   force =    -0.01588825    0.00000916    0.00000916
     atom    2 type  1   force =     0.00054446    0.00010964    0.00010964
     atom    3 type  1   force =     0.00005525    0.00000874   -0.00000993
     atom    4 type  1   force =     0.00051946    0.00011400   -0.00011475
     atom    5 type  1   force =     0.00005525   -0.00000993    0.00000874
     atom    6 type  1   force =     0.00051946   -0.00011475    0.00011400
     atom    7 type  1   force =    -0.00047501   -0.00000886   -0.00000886
     atom    8 type  1   force =     0.00054747   -0.00010952   -0.00010952
     atom    9 type  1   force =    -0.00054995    0.00011375    0.00011375
     atom   10 type  1   force =     0.01589006    0.00000934    0.00000934
     atom   11 type  1   force =    -0.00051579    0.00010957   -0.00010852
     atom   12 type  1   force =    -0.00005445    0.00000985   -0.00000905
     atom   13 type  1   force =    -0.00051579   -0.00010852    0.00010957
     atom   14 type  1   force =    -0.00005445   -0.00000905    0.00000985
     atom   15 type  1   force =    -0.00055213   -0.00011422   -0.00011422
     atom   16 type  1   force =     0.00047454   -0.00000930   -0.00000930
     atom   17 type  1   force =    -0.00000012   -0.00033648    0.00011717
     atom   18 type  1   force =     0.00000106    0.00011911   -0.00034663
     atom   19 type  1   force =    -0.00018904    0.00021768    0.00003318
     atom   20 type  1   force =    -0.00019449   -0.00024251    0.00019096
     atom   21 type  1   force =     0.00018813    0.00018603   -0.00023609
     atom   22 type  1   force =     0.00019559    0.00003637    0.00022325
     atom   23 type  1   force =    -0.00000083   -0.00006761    0.00008655
     atom   24 type  1   force =     0.00000084    0.00008622   -0.00006713
     atom   25 type  1   force =    -0.00000012    0.00011717   -0.00033648
     atom   26 type  1   force =     0.00000106   -0.00034663    0.00011911
     atom   27 type  1   force =     0.00018813   -0.00023609    0.00018603
     atom   28 type  1   force =     0.00019559    0.00022325    0.00003637
     atom   29 type  1   force =    -0.00018904    0.00003318    0.00021768
     atom   30 type  1   force =    -0.00019449    0.00019096   -0.00024251
     atom   31 type  1   force =    -0.00000083    0.00008655   -0.00006761
     atom   32 type  1   force =     0.00000084   -0.00006713    0.00008622
     atom   33 type  1   force =    -0.00383434    0.00251275    0.00251275
     atom   34 type  1   force =     0.00026879    0.00006596    0.00006596
     atom   35 type  1   force =     0.00008404    0.00006362    0.00007713
     atom   36 type  1   force =    -0.00008728    0.00007693    0.00006789
     atom   37 type  1   force =     0.00008404    0.00007713    0.00006362
     atom   38 type  1   force =    -0.00008728    0.00006789    0.00007693
     atom   39 type  1   force =    -0.00026684    0.00006577    0.00006577
     atom   40 type  1   force =     0.00395187    0.00273522    0.00273522
     atom   41 type  1   force =    -0.00382583   -0.00251981   -0.00251981
     atom   42 type  1   force =     0.00394266   -0.00274251   -0.00274251
     atom   43 type  1   force =     0.00008390   -0.00006251   -0.00007817
     atom   44 type  1   force =    -0.00008774   -0.00006599   -0.00007886
     atom   45 type  1   force =     0.00008390   -0.00007817   -0.00006251
     atom   46 type  1   force =    -0.00008774   -0.00007886   -0.00006599
     atom   47 type  1   force =    -0.00027497   -0.00005871   -0.00005871
     atom   48 type  1   force =     0.00027909   -0.00005855   -0.00005855
     atom   49 type  1   force =    -0.00004605   -0.00007603    0.00008969
     atom   50 type  1   force =    -0.00390155   -0.00273269    0.00273475
     atom   51 type  1   force =     0.00378551   -0.00250630    0.00250717
     atom   52 type  1   force =     0.00004746   -0.00007680    0.00008845
     atom   53 type  1   force =     0.00022636   -0.00005351    0.00005336
     atom   54 type  1   force =     0.00003883   -0.00008081    0.00006942
     atom   55 type  1   force =    -0.00003709   -0.00008366    0.00006889
     atom   56 type  1   force =    -0.00022784   -0.00005777    0.00005571
     atom   57 type  1   force =    -0.00004605    0.00008969   -0.00007603
     atom   58 type  1   force =    -0.00390155    0.00273475   -0.00273269
     atom   59 type  1   force =     0.00022636    0.00005336   -0.00005351
     atom   60 type  1   force =     0.00003883    0.00006942   -0.00008081
     atom   61 type  1   force =     0.00378551    0.00250717   -0.00250630
     atom   62 type  1   force =     0.00004746    0.00008845   -0.00007680
     atom   63 type  1   force =    -0.00003709    0.00006889   -0.00008366
     atom   64 type  1   force =    -0.00022784    0.00005571   -0.00005777

     Total force =     0.027205     Total SCF correction =     0.000055

     Writing output data file pwscf.save
 
     init_run     :      7.31s CPU      7.55s WALL (       1 calls)
     electrons    :    216.88s CPU    223.77s WALL (       1 calls)
     forces       :      3.90s CPU      4.01s WALL (       1 calls)

     Called by init_run:
     wfcinit      :      6.62s CPU      6.74s WALL (       1 calls)
     potinit      :      0.25s CPU      0.27s WALL (       1 calls)

     Called by electrons:
     c_bands      :    192.20s CPU    197.80s WALL (      13 calls)
     sum_band     :     19.63s CPU     19.97s WALL (      13 calls)
     v_of_rho     :      0.89s CPU      0.89s WALL (      13 calls)
     newd         :      1.66s CPU      1.75s WALL (      13 calls)
     PAW_pot      :      2.19s CPU      2.19s WALL (      13 calls)
     mix_rho      :      0.50s CPU      0.52s WALL (      13 calls)

     Called by c_bands:
     init_us_2    :      3.79s CPU      3.86s WALL (      84 calls)
     cegterg      :    187.11s CPU    192.60s WALL (      39 calls)

     Called by sum_band:
     sum_band:bec :      0.03s CPU      0.03s WALL (      39 calls)
     addusdens    :      1.72s CPU      1.97s WALL (      13 calls)

     Called by *egterg:
     h_psi        :     86.59s CPU     86.98s WALL (     175 calls)
     s_psi        :     22.08s CPU     22.10s WALL (     175 calls)
     g_psi        :      0.84s CPU      0.85s WALL (     133 calls)
     cdiaghg      :     25.95s CPU     26.02s WALL (     169 calls)

     Called by h_psi:
     add_vuspsi   :     22.52s CPU     22.57s WALL (     175 calls)

     General routines
     calbec       :     35.00s CPU     35.11s WALL (     226 calls)
     fft          :      0.41s CPU      0.42s WALL (     182 calls)
     fftw         :     40.33s CPU     40.61s WALL (   39798 calls)
     davcio       :      0.00s CPU      0.01s WALL (       3 calls)
 
     Parallel routines
     fft_scatter  :     12.12s CPU     11.70s WALL (   39980 calls)
 
     PWSCF        :  3m48.40s CPU     4m 7.26s WALL

 
   This run was terminated on:  13:36:29   3Feb2016            

=------------------------------------------------------------------------------=
   JOB DONE.
=------------------------------------------------------------------------------=
