<?xml version="1.0" encoding="ISO-8859-1"?>
<modeling>
 <generator>
  <i name="program" type="string">vasp </i>
  <i name="version" type="string">5.4.1  </i>
  <i name="subversion" type="string">05Feb16 (build Mar 26 2016 11:58:25) complex                          parallel </i>
  <i name="platform" type="string">IFC91_ompi </i>
  <i name="date" type="string">2017 03 12 </i>
  <i name="time" type="string">12:13:56 </i>
 </generator>
 <incar>
  <i type="string" name="PREC">accurate</i>
  <i type="int" name="IALGO">    38</i>
  <i type="logical" name="ADDGRID"> T  </i>
  <i type="int" name="NELMIN">     5</i>
  <i type="int" name="IBRION">    -1</i>
  <i name="EDIFF">      0.00000001</i>
  <i name="ENCUT">    300.00000000</i>
  <i type="logical" name="LREAL"> F  </i>
  <i type="int" name="ISMEAR">     0</i>
  <i name="SIGMA">      0.05000000</i>
  <i type="logical" name="LWAVE"> F  </i>
  <i type="logical" name="LCHARG"> F  </i>
  <v type="int" name="KPOINT_BSE">    -1     0     0     0</v>
 </incar>
 <kpoints>
  <generation param="Monkhorst-Pack">
   <v type="int" name="divisions">       2        2        2 </v>
   <v name="usershift">      0.00000000       0.00000000       0.00000000 </v>
   <v name="genvec1">      0.50000000       0.00000000       0.00000000 </v>
   <v name="genvec2">      0.00000000       0.50000000       0.00000000 </v>
   <v name="genvec3">      0.00000000       0.00000000       0.50000000 </v>
   <v name="shift">      0.50000000       0.50000000       0.50000000 </v>
  </generation>
  <varray name="kpointlist" >
   <v>       0.25000000       0.25000000       0.25000000 </v>
   <v>      -0.25000000       0.25000000       0.25000000 </v>
   <v>       0.25000000      -0.25000000       0.25000000 </v>
   <v>      -0.25000000      -0.25000000       0.25000000 </v>
  </varray>
  <varray name="weights" >
   <v>       0.25000000 </v>
   <v>       0.25000000 </v>
   <v>       0.25000000 </v>
   <v>       0.25000000 </v>
  </varray>
 </kpoints>
 <parameters>
  <separator name="general" >
   <i type="string" name="SYSTEM">unknown system</i>
   <i type="logical" name="LCOMPAT"> F  </i>
  </separator>
  <separator name="electronic" >
   <i type="string" name="PREC">accura</i>
   <i name="ENMAX">    300.00000000</i>
   <i name="ENAUG">    322.06900000</i>
   <i name="EDIFF">      0.00000001</i>
   <i type="int" name="IALGO">    38</i>
   <i type="int" name="IWAVPR">    10</i>
   <i type="int" name="NBANDS">   164</i>
   <i name="NELECT">    256.00000000</i>
   <i type="int" name="TURBO">     0</i>
   <i type="int" name="IRESTART">     0</i>
   <i type="int" name="NREBOOT">     0</i>
   <i type="int" name="NMIN">     0</i>
   <i name="EREF">      0.00000000</i>
   <separator name="electronic smearing" >
    <i type="int" name="ISMEAR">     0</i>
    <i name="SIGMA">      0.05000000</i>
    <i name="KSPACING">      0.50000000</i>
    <i type="logical" name="KGAMMA"> T  </i>
   </separator>
   <separator name="electronic projectors" >
    <i type="logical" name="LREAL"> F  </i>
    <v name="ROPT">      0.00000000</v>
    <i type="int" name="LMAXPAW">  -100</i>
    <i type="int" name="LMAXMIX">     2</i>
    <i type="logical" name="NLSPLINE"> F  </i>
   </separator>
   <separator name="electronic startup" >
    <i type="int" name="ISTART">     0</i>
    <i type="int" name="ICHARG">     2</i>
    <i type="int" name="INIWAV">     1</i>
   </separator>
   <separator name="electronic spin" >
    <i type="int" name="ISPIN">     1</i>
    <i type="logical" name="LNONCOLLINEAR"> F  </i>
    <v name="MAGMOM">      1.00000000      1.00000000      1.00000000      1.00000000      1.00000000      1.00000000      1.00000000      1.00000000      1.00000000      1.00000000      1.00000000      1.00000000      1.00000000      1.00000000      1.00000000      1.00000000      1.00000000      1.00000000      1.00000000      1.00000000
      1.00000000      1.00000000      1.00000000      1.00000000      1.00000000      1.00000000      1.00000000      1.00000000      1.00000000      1.00000000      1.00000000      1.00000000      1.00000000      1.00000000      1.00000000      1.00000000      1.00000000      1.00000000      1.00000000      1.00000000
      1.00000000      1.00000000      1.00000000      1.00000000      1.00000000      1.00000000      1.00000000      1.00000000      1.00000000      1.00000000      1.00000000      1.00000000      1.00000000      1.00000000      1.00000000      1.00000000      1.00000000      1.00000000      1.00000000      1.00000000
      1.00000000      1.00000000      1.00000000      1.00000000</v>
    <i name="NUPDOWN">     -1.00000000</i>
    <i type="logical" name="LSORBIT"> F  </i>
    <v name="SAXIS">      0.00000000      0.00000000      1.00000000</v>
    <i type="logical" name="LSPIRAL"> F  </i>
    <v name="QSPIRAL">      0.00000000      0.00000000      0.00000000</v>
    <i type="logical" name="LZEROZ"> F  </i>
   </separator>
   <separator name="electronic exchange-correlation" >
    <i type="logical" name="LASPH"> F  </i>
    <i type="logical" name="LMETAGGA"> F  </i>
   </separator>
   <separator name="electronic convergence" >
    <i type="int" name="NELM">    60</i>
    <i type="int" name="NELMDL">    -5</i>
    <i type="int" name="NELMIN">     5</i>
    <i name="ENINI">    300.00000000</i>
    <separator name="electronic convergence detail" >
     <i type="logical" name="LDIAG"> T  </i>
     <i type="logical" name="LSUBROT"> F  </i>
     <i name="WEIMIN">      0.00000000</i>
     <i name="EBREAK">      0.00000000</i>
     <i name="DEPER">      0.30000000</i>
     <i type="int" name="NRMM">     4</i>
     <i name="TIME">      0.40000000</i>
    </separator>
   </separator>
   <separator name="electronic mixer" >
    <i name="AMIX">      0.40000000</i>
    <i name="BMIX">      1.00000000</i>
    <i name="AMIN">      0.10000000</i>
    <i name="AMIX_MAG">      1.60000000</i>
    <i name="BMIX_MAG">      1.00000000</i>
    <separator name="electronic mixer details" >
     <i type="int" name="IMIX">     4</i>
     <i type="logical" name="MIXFIRST"> F  </i>
     <i type="int" name="MAXMIX">   -45</i>
     <i name="WC">    100.00000000</i>
     <i type="int" name="INIMIX">     1</i>
     <i type="int" name="MIXPRE">     1</i>
     <i type="int" name="MREMOVE">     5</i>
    </separator>
   </separator>
   <separator name="electronic dipolcorrection" >
    <i type="logical" name="LDIPOL"> F  </i>
    <i type="logical" name="LMONO"> F  </i>
    <i type="int" name="IDIPOL">     0</i>
    <i name="EPSILON">      1.00000000</i>
    <v name="DIPOL">   -100.00000000   -100.00000000   -100.00000000</v>
    <i name="EFIELD">      0.00000000</i>
   </separator>
  </separator>
  <separator name="grids" >
   <i type="int" name="NGX">    64</i>
   <i type="int" name="NGY">    64</i>
   <i type="int" name="NGZ">    64</i>
   <i type="int" name="NGXF">   128</i>
   <i type="int" name="NGYF">   128</i>
   <i type="int" name="NGZF">   128</i>
   <i type="logical" name="ADDGRID"> T  </i>
  </separator>
  <separator name="ionic" >
   <i type="int" name="NSW">     0</i>
   <i type="int" name="IBRION">    -1</i>
   <i type="int" name="ISIF">     2</i>
   <i name="PSTRESS">      0.00000000</i>
   <i name="EDIFFG">      0.00000010</i>
   <i type="int" name="NFREE">     0</i>
   <i name="POTIM">      0.50000000</i>
   <i name="SMASS">     -3.00000000</i>
   <i name="SCALEE">      1.00000000</i>
  </separator>
  <separator name="ionic md" >
   <i name="TEBEG">      0.00010000</i>
   <i name="TEEND">      0.00010000</i>
   <i type="int" name="NBLOCK">     1</i>
   <i type="int" name="KBLOCK">     1</i>
   <i type="int" name="NPACO">   256</i>
   <i name="APACO">     16.00000000</i>
  </separator>
  <separator name="symmetry" >
   <i type="int" name="ISYM">     2</i>
   <i name="SYMPREC">      0.00001000</i>
  </separator>
  <separator name="dos" >
   <i type="logical" name="LORBIT"> F  </i>
   <v name="RWIGS">     -1.00000000</v>
   <i type="int" name="NEDOS">   301</i>
   <i name="EMIN">     10.00000000</i>
   <i name="EMAX">    -10.00000000</i>
   <i name="EFERMI">      0.00000000</i>
  </separator>
  <separator name="writing" >
   <i type="int" name="NWRITE">     2</i>
   <i type="logical" name="LWAVE"> F  </i>
   <i type="logical" name="LCHARG"> F  </i>
   <i type="logical" name="LPARD"> F  </i>
   <i type="logical" name="LVTOT"> F  </i>
   <i type="logical" name="LVHAR"> F  </i>
   <i type="logical" name="LELF"> F  </i>
   <i type="logical" name="LOPTICS"> F  </i>
   <v name="STM">      0.00000000      0.00000000      0.00000000      0.00000000      0.00000000      0.00000000      0.00000000</v>
  </separator>
  <separator name="performance" >
   <i type="int" name="NPAR">     4</i>
   <i type="int" name="NSIM">     4</i>
   <i type="int" name="NBLK">    -1</i>
   <i type="logical" name="LPLANE"> T  </i>
   <i type="logical" name="LSCALAPACK"> T  </i>
   <i type="logical" name="LSCAAWARE"> F  </i>
   <i type="logical" name="LSCALU"> F  </i>
   <i type="logical" name="LASYNC"> F  </i>
   <i type="logical" name="LORBITALREAL"> F  </i>
  </separator>
  <separator name="miscellaneous" >
   <i type="int" name="IDIOT">     3</i>
   <i type="logical" name="LMUSIC"> F  </i>
   <v name="POMASS">     28.08500000</v>
   <v name="DARWINR">      0.00000000</v>
   <v name="DARWINV">      1.00000000</v>
   <i type="logical" name="LCORR"> T  </i>
  </separator>
  <i type="logical" name="GGA_COMPAT"> T  </i>
  <i type="logical" name="LBERRY"> F  </i>
  <i type="int" name="ICORELEVEL">     0</i>
  <i type="logical" name="LDAU"> F  </i>
  <i type="int" name="I_CONSTRAINED_M">     0</i>
  <separator name="electronic exchange-correlation" >
   <i type="string" name="GGA">--</i>
   <i type="int" name="VOSKOWN">     0</i>
   <i type="logical" name="LHFCALC"> F  </i>
   <i type="string" name="PRECFOCK"></i>
   <i type="logical" name="LSYMGRAD"> F  </i>
   <i type="logical" name="LHFONE"> F  </i>
   <i type="logical" name="LRHFCALC"> F  </i>
   <i type="logical" name="LTHOMAS"> F  </i>
   <i type="logical" name="LMODELHF"> F  </i>
   <i name="ENCUT4O">     -1.00000000</i>
   <i type="int" name="EXXOEP">     0</i>
   <i type="int" name="FOURORBIT">     0</i>
   <i name="AEXX">      0.00000000</i>
   <i name="HFALPHA">      0.00000000</i>
   <i name="MCALPHA">      0.00000000</i>
   <i name="ALDAX">      1.00000000</i>
   <i name="AGGAX">      1.00000000</i>
   <i name="ALDAC">      1.00000000</i>
   <i name="AGGAC">      1.00000000</i>
   <i type="int" name="NKREDX">     1</i>
   <i type="int" name="NKREDY">     1</i>
   <i type="int" name="NKREDZ">     1</i>
   <i type="logical" name="SHIFTRED"> F  </i>
   <i type="logical" name="ODDONLY"> F  </i>
   <i type="logical" name="EVENONLY"> F  </i>
   <i type="int" name="LMAXFOCK">     0</i>
   <i type="int" name="NMAXFOCKAE">     0</i>
   <i type="logical" name="LFOCKAEDFT"> F  </i>
   <i name="HFSCREEN">      0.00000000</i>
   <i name="HFSCREENC">      0.00000000</i>
   <i type="int" name="NBANDSGWLOW">     0</i>
  </separator>
  <separator name="vdW DFT" >
   <i type="logical" name="LUSE_VDW"> F  </i>
   <i name="Zab_VDW">     -0.84910000</i>
   <i name="PARAM1">      0.12340000</i>
   <i name="PARAM2">      1.00000000</i>
   <i name="PARAM3">      0.00000000</i>
  </separator>
  <separator name="model GW" >
   <i type="int" name="MODEL_GW">     0</i>
   <i name="MODEL_EPS0">     12.24990743</i>
   <i name="MODEL_ALPHA">      1.00000000</i>
  </separator>
  <separator name="linear response parameters" >
   <i type="logical" name="LEPSILON"> F  </i>
   <i type="logical" name="LRPA"> F  </i>
   <i type="logical" name="LNABLA"> F  </i>
   <i type="logical" name="LVEL"> F  </i>
   <i type="int" name="KINTER">     0</i>
   <i name="CSHIFT">      0.10000000</i>
   <i name="OMEGAMAX">     -1.00000000</i>
   <i name="DEG_THRESHOLD">      0.00200000</i>
  </separator>
  <separator name="orbital magnetization" >
   <i type="logical" name="NUCIND"> F  </i>
   <v name="MAGPOS">      0.00000000      0.00000000      0.00000000</v>
   <i type="logical" name="LNICSALL"> T  </i>
   <i type="logical" name="ORBITALMAG"> F  </i>
   <i type="logical" name="LMAGBLOCH"> F  </i>
   <i type="logical" name="LCHIMAG"> F  </i>
   <i type="logical" name="LGAUGE"> T  </i>
   <i type="int" name="MAGATOM">     0</i>
   <v name="MAGDIPOL">      0.00000000      0.00000000      0.00000000</v>
   <v name="AVECCONST">      0.00000000      0.00000000      0.00000000</v>
  </separator>
  <separator name="response functions" >
   <i type="logical" name="LADDER"> F  </i>
   <i type="logical" name="LFXC"> F  </i>
   <i type="logical" name="LHARTREE"> T  </i>
   <i type="int" name="IBSE">     0</i>
   <v type="int" name="KPOINT">    -1     0     0     0</v>
   <i type="logical" name="LTCTE"> F  </i>
   <i type="logical" name="LTETE"> F  </i>
   <i type="logical" name="LTRIPLET"> F  </i>
   <i type="logical" name="LFXCEPS"> F  </i>
   <i type="logical" name="LFXHEG"> F  </i>
   <i type="int" name="NATURALO">     0</i>
   <i type="logical" name="L2ORDER"> F  </i>
   <i type="logical" name="LUSEW"> F  </i>
   <i name="ENCUTGW">     -2.00000000</i>
   <i name="ENCUTGWSOFT">     -2.00000000</i>
   <i name="ENCUTLF">     -1.00000000</i>
   <i type="int" name="LMAXMP2">    -1</i>
   <i name="SCISSOR">      0.00000000</i>
   <i type="int" name="NOMEGA">     0</i>
   <i type="int" name="NOMEGAR">     0</i>
   <i type="int" name="NBANDSGW">    -1</i>
   <i type="int" name="NBANDSO">    -1</i>
   <i type="int" name="NBANDSV">    -1</i>
   <i type="int" name="NELM">     1</i>
   <i type="int" name="NELMHF">     1</i>
   <i type="int" name="DIM">     3</i>
   <i type="int" name="ANTIRES">     0</i>
   <i name="OMEGAMAX">    -30.00000000</i>
   <i name="OMEGAMIN">    -30.00000000</i>
   <i name="OMEGATL">   -200.00000000</i>
   <i type="int" name="OMEGAGRID">     0</i>
   <i name="CSHIFT">     -0.10000000</i>
   <i type="logical" name="SELFENERGY"> F  </i>
   <i type="logical" name="LSPECTRAL"> F  </i>
   <i type="logical" name="LSPECTRALGW"> F  </i>
   <i type="logical" name="LSINGLES"> F  </i>
   <i type="logical" name="LFERMIGW"> F  </i>
   <i type="logical" name="ODDONLYGW"> F  </i>
   <i type="logical" name="EVENONLYGW"> F  </i>
   <i type="int" name="NKREDLFX">     1</i>
   <i type="int" name="NKREDLFY">     1</i>
   <i type="int" name="NKREDLFZ">     1</i>
   <i type="int" name="MAXMEM">  1800</i>
   <i type="int" name="TELESCOPE">     0</i>
   <i type="int" name="TAUPAR">     1</i>
   <i type="int" name="OMEGAPAR">    -1</i>
   <i name="LAMBDA">      1.00000000</i>
  </separator>
  <separator name="External order field" >
   <i name="OFIELD_KAPPA">      0.00000000</i>
   <v name="OFIELD_K">      0.00000000      0.00000000      0.00000000</v>
   <i name="OFIELD_Q6_NEAR">      0.00000000</i>
   <i name="OFIELD_Q6_FAR">      0.00000000</i>
   <i name="OFIELD_A">      0.00000000</i>
  </separator>
 </parameters>
 <atominfo>
  <atoms>      64 </atoms>
  <types>       1 </types>
  <array name="atoms" >
   <dimension dim="1">ion</dimension>
   <field type="string">element</field>
   <field type="int">atomtype</field>
   <set>
    <rc><c>Si</c><c>   1</c></rc>
    <rc><c>Si</c><c>   1</c></rc>
    <rc><c>Si</c><c>   1</c></rc>
    <rc><c>Si</c><c>   1</c></rc>
    <rc><c>Si</c><c>   1</c></rc>
    <rc><c>Si</c><c>   1</c></rc>
    <rc><c>Si</c><c>   1</c></rc>
    <rc><c>Si</c><c>   1</c></rc>
    <rc><c>Si</c><c>   1</c></rc>
    <rc><c>Si</c><c>   1</c></rc>
    <rc><c>Si</c><c>   1</c></rc>
    <rc><c>Si</c><c>   1</c></rc>
    <rc><c>Si</c><c>   1</c></rc>
    <rc><c>Si</c><c>   1</c></rc>
    <rc><c>Si</c><c>   1</c></rc>
    <rc><c>Si</c><c>   1</c></rc>
    <rc><c>Si</c><c>   1</c></rc>
    <rc><c>Si</c><c>   1</c></rc>
    <rc><c>Si</c><c>   1</c></rc>
    <rc><c>Si</c><c>   1</c></rc>
    <rc><c>Si</c><c>   1</c></rc>
    <rc><c>Si</c><c>   1</c></rc>
    <rc><c>Si</c><c>   1</c></rc>
    <rc><c>Si</c><c>   1</c></rc>
    <rc><c>Si</c><c>   1</c></rc>
    <rc><c>Si</c><c>   1</c></rc>
    <rc><c>Si</c><c>   1</c></rc>
    <rc><c>Si</c><c>   1</c></rc>
    <rc><c>Si</c><c>   1</c></rc>
    <rc><c>Si</c><c>   1</c></rc>
    <rc><c>Si</c><c>   1</c></rc>
    <rc><c>Si</c><c>   1</c></rc>
    <rc><c>Si</c><c>   1</c></rc>
    <rc><c>Si</c><c>   1</c></rc>
    <rc><c>Si</c><c>   1</c></rc>
    <rc><c>Si</c><c>   1</c></rc>
    <rc><c>Si</c><c>   1</c></rc>
    <rc><c>Si</c><c>   1</c></rc>
    <rc><c>Si</c><c>   1</c></rc>
    <rc><c>Si</c><c>   1</c></rc>
    <rc><c>Si</c><c>   1</c></rc>
    <rc><c>Si</c><c>   1</c></rc>
    <rc><c>Si</c><c>   1</c></rc>
    <rc><c>Si</c><c>   1</c></rc>
    <rc><c>Si</c><c>   1</c></rc>
    <rc><c>Si</c><c>   1</c></rc>
    <rc><c>Si</c><c>   1</c></rc>
    <rc><c>Si</c><c>   1</c></rc>
    <rc><c>Si</c><c>   1</c></rc>
    <rc><c>Si</c><c>   1</c></rc>
    <rc><c>Si</c><c>   1</c></rc>
    <rc><c>Si</c><c>   1</c></rc>
    <rc><c>Si</c><c>   1</c></rc>
    <rc><c>Si</c><c>   1</c></rc>
    <rc><c>Si</c><c>   1</c></rc>
    <rc><c>Si</c><c>   1</c></rc>
    <rc><c>Si</c><c>   1</c></rc>
    <rc><c>Si</c><c>   1</c></rc>
    <rc><c>Si</c><c>   1</c></rc>
    <rc><c>Si</c><c>   1</c></rc>
    <rc><c>Si</c><c>   1</c></rc>
    <rc><c>Si</c><c>   1</c></rc>
    <rc><c>Si</c><c>   1</c></rc>
    <rc><c>Si</c><c>   1</c></rc>
   </set>
  </array>
  <array name="atomtypes" >
   <dimension dim="1">type</dimension>
   <field type="int">atomspertype</field>
   <field type="string">element</field>
   <field>mass</field>
   <field>valence</field>
   <field type="string">pseudopotential</field>
   <set>
    <rc><c>  64</c><c>Si</c><c>     28.08500000</c><c>      4.00000000</c><c>  PAW_PBE Si 05Jan2001                  </c></rc>
   </set>
  </array>
 </atominfo>
 <structure name="initialpos" >
  <crystal>
   <varray name="basis" >
    <v>      10.93252578       0.00000000       0.00000000 </v>
    <v>       0.00000000      10.93252578       0.00000000 </v>
    <v>       0.00000000       0.00000000      10.93252578 </v>
   </varray>
   <i name="volume">   1306.65679237 </i>
   <varray name="rec_basis" >
    <v>       0.09147017       0.00000000       0.00000000 </v>
    <v>       0.00000000       0.09147017       0.00000000 </v>
    <v>       0.00000000       0.00000000       0.09147017 </v>
   </varray>
  </crystal>
  <varray name="positions" >
   <v>       0.44024411       0.43750000       0.43750000 </v>
   <v>       0.93750000       0.43750000       0.43750000 </v>
   <v>       0.43750000       0.93750000       0.43750000 </v>
   <v>       0.93750000       0.93750000       0.43750000 </v>
   <v>       0.43750000       0.43750000       0.93750000 </v>
   <v>       0.93750000       0.43750000       0.93750000 </v>
   <v>       0.43750000       0.93750000       0.93750000 </v>
   <v>       0.93750000       0.93750000       0.93750000 </v>
   <v>       0.43750000       0.18750000       0.18750000 </v>
   <v>       0.93750000       0.18750000       0.18750000 </v>
   <v>       0.43750000       0.68750000       0.18750000 </v>
   <v>       0.93750000       0.68750000       0.18750000 </v>
   <v>       0.43750000       0.18750000       0.68750000 </v>
   <v>       0.93750000       0.18750000       0.68750000 </v>
   <v>       0.43750000       0.68750000       0.68750000 </v>
   <v>       0.93750000       0.68750000       0.68750000 </v>
   <v>       0.18750000       0.43750000       0.18750000 </v>
   <v>       0.68750000       0.43750000       0.18750000 </v>
   <v>       0.19024411       0.93750000       0.18750000 </v>
   <v>       0.68750000       0.93750000       0.18750000 </v>
   <v>       0.18750000       0.43750000       0.68750000 </v>
   <v>       0.68750000       0.43750000       0.68750000 </v>
   <v>       0.18750000       0.93750000       0.68750000 </v>
   <v>       0.68750000       0.93750000       0.68750000 </v>
   <v>       0.18750000       0.18750000       0.43750000 </v>
   <v>       0.68750000       0.18750000       0.43750000 </v>
   <v>       0.18750000       0.68750000       0.43750000 </v>
   <v>       0.68750000       0.68750000       0.43750000 </v>
   <v>       0.18750000       0.18750000       0.93750000 </v>
   <v>       0.68750000       0.18750000       0.93750000 </v>
   <v>       0.18750000       0.68750000       0.93750000 </v>
   <v>       0.68750000       0.68750000       0.93750000 </v>
   <v>       0.06250000       0.06250000       0.06250000 </v>
   <v>       0.56250000       0.06250000       0.06250000 </v>
   <v>       0.06250000       0.56250000       0.06250000 </v>
   <v>       0.56250000       0.56250000       0.06250000 </v>
   <v>       0.06250000       0.06250000       0.56250000 </v>
   <v>       0.56250000       0.06250000       0.56250000 </v>
   <v>       0.06250000       0.56250000       0.56250000 </v>
   <v>       0.56250000       0.56250000       0.56250000 </v>
   <v>       0.06250000       0.31250000       0.31250000 </v>
   <v>       0.56250000       0.31250000       0.31250000 </v>
   <v>       0.06250000       0.81250000       0.31250000 </v>
   <v>       0.56250000       0.81250000       0.31250000 </v>
   <v>       0.06250000       0.31250000       0.81250000 </v>
   <v>       0.56250000       0.31250000       0.81250000 </v>
   <v>       0.06250000       0.81250000       0.81250000 </v>
   <v>       0.56250000       0.81250000       0.81250000 </v>
   <v>       0.31250000       0.06250000       0.31250000 </v>
   <v>       0.81250000       0.06250000       0.31250000 </v>
   <v>       0.31250000       0.56250000       0.31250000 </v>
   <v>       0.81250000       0.56250000       0.31250000 </v>
   <v>       0.31250000       0.06250000       0.81250000 </v>
   <v>       0.81250000       0.06250000       0.81250000 </v>
   <v>       0.31250000       0.56250000       0.81250000 </v>
   <v>       0.81250000       0.56250000       0.81250000 </v>
   <v>       0.31250000       0.31250000       0.06250000 </v>
   <v>       0.81250000       0.31250000       0.06250000 </v>
   <v>       0.31250000       0.81250000       0.06250000 </v>
   <v>       0.81250000       0.81250000       0.06250000 </v>
   <v>       0.31250000       0.31250000       0.56250000 </v>
   <v>       0.81250000       0.31250000       0.56250000 </v>
   <v>       0.31250000       0.81250000       0.56250000 </v>
   <v>       0.81250000       0.81250000       0.56250000 </v>
  </varray>
 </structure>
 <calculation>
  <scstep>
   <time name="dav">    4.50    4.50</time>
   <time name="total">    4.71    4.72</time>
   <energy>
    <i name="alphaZ">    105.52440745 </i>
    <i name="ewald">  -7265.47132172 </i>
    <i name="hartreedc">   -361.71232485 </i>
    <i name="XCdc">   -597.75714171 </i>
    <i name="pawpsdc">   5639.92317535 </i>
    <i name="pawaedc">  -4513.95313856 </i>
    <i name="eentropy">     -0.00116325 </i>
    <i name="bandstr">    856.87552929 </i>
    <i name="atom">   6596.14994790 </i>
    <i name="e_fr_energy">    459.57796991 </i>
    <i name="e_wo_entrp">    459.57913317 </i>
    <i name="e_0_energy">    459.57855154 </i>
   </energy>
  </scstep>
  <scstep>
   <time name="dav">    5.14    5.14</time>
   <time name="total">    5.14    5.15</time>
   <energy>
    <i name="e_fr_energy">   -299.62829409 </i>
    <i name="e_wo_entrp">   -299.62829409 </i>
    <i name="e_0_energy">   -299.62829409 </i>
   </energy>
  </scstep>
  <scstep>
   <time name="dav">    5.19    5.20</time>
   <time name="total">    5.20    5.20</time>
   <energy>
    <i name="e_fr_energy">   -350.91285502 </i>
    <i name="e_wo_entrp">   -350.91285502 </i>
    <i name="e_0_energy">   -350.91285502 </i>
   </energy>
  </scstep>
  <scstep>
   <time name="dav">    5.19    5.19</time>
   <time name="total">    5.19    5.20</time>
   <energy>
    <i name="e_fr_energy">   -352.26566450 </i>
    <i name="e_wo_entrp">   -352.26566450 </i>
    <i name="e_0_energy">   -352.26566450 </i>
   </energy>
  </scstep>
  <scstep>
   <time name="dav">    5.13    5.14</time>
   <time name="total">    5.38    5.39</time>
   <energy>
    <i name="e_fr_energy">   -352.31295163 </i>
    <i name="e_wo_entrp">   -352.31295163 </i>
    <i name="e_0_energy">   -352.31295163 </i>
   </energy>
  </scstep>
  <scstep>
   <time name="dav">    5.05    5.05</time>
   <time name="total">    5.49    5.50</time>
   <energy>
    <i name="e_fr_energy">   -348.58453314 </i>
    <i name="e_wo_entrp">   -348.58453314 </i>
    <i name="e_0_energy">   -348.58453314 </i>
   </energy>
  </scstep>
  <scstep>
   <time name="dav">    4.99    5.00</time>
   <time name="total">    5.43    5.45</time>
   <energy>
    <i name="e_fr_energy">   -346.87188292 </i>
    <i name="e_wo_entrp">   -346.87188292 </i>
    <i name="e_0_energy">   -346.87188292 </i>
   </energy>
  </scstep>
  <scstep>
   <time name="dav">    5.12    5.12</time>
   <time name="total">    5.56    5.58</time>
   <energy>
    <i name="e_fr_energy">   -346.89816549 </i>
    <i name="e_wo_entrp">   -346.89816549 </i>
    <i name="e_0_energy">   -346.89816549 </i>
   </energy>
  </scstep>
  <scstep>
   <time name="dav">    5.30    5.31</time>
   <time name="total">    5.74    5.77</time>
   <energy>
    <i name="e_fr_energy">   -346.90490312 </i>
    <i name="e_wo_entrp">   -346.90490312 </i>
    <i name="e_0_energy">   -346.90490312 </i>
   </energy>
  </scstep>
  <scstep>
   <time name="dav">    4.90    4.91</time>
   <time name="total">    5.34    5.35</time>
   <energy>
    <i name="e_fr_energy">   -346.90695411 </i>
    <i name="e_wo_entrp">   -346.90695411 </i>
    <i name="e_0_energy">   -346.90695411 </i>
   </energy>
  </scstep>
  <scstep>
   <time name="dav">    5.18    5.19</time>
   <time name="total">    5.63    5.67</time>
   <energy>
    <i name="e_fr_energy">   -346.90692815 </i>
    <i name="e_wo_entrp">   -346.90692815 </i>
    <i name="e_0_energy">   -346.90692815 </i>
   </energy>
  </scstep>
  <scstep>
   <time name="dav">    5.11    5.12</time>
   <time name="total">    5.56    5.57</time>
   <energy>
    <i name="e_fr_energy">   -346.90694308 </i>
    <i name="e_wo_entrp">   -346.90694308 </i>
    <i name="e_0_energy">   -346.90694308 </i>
   </energy>
  </scstep>
  <scstep>
   <time name="dav">    5.07    5.07</time>
   <time name="total">    5.51    5.54</time>
   <energy>
    <i name="e_fr_energy">   -346.90694362 </i>
    <i name="e_wo_entrp">   -346.90694362 </i>
    <i name="e_0_energy">   -346.90694362 </i>
   </energy>
  </scstep>
  <scstep>
   <time name="dav">    5.20    5.21</time>
   <time name="total">    5.64    5.69</time>
   <energy>
    <i name="e_fr_energy">   -346.90694424 </i>
    <i name="e_wo_entrp">   -346.90694424 </i>
    <i name="e_0_energy">   -346.90694424 </i>
   </energy>
  </scstep>
  <scstep>
   <time name="dav">    4.43    4.44</time>
   <time name="total">    4.87    4.88</time>
   <energy>
    <i name="e_fr_energy">   -346.90694399 </i>
    <i name="e_wo_entrp">   -346.90694399 </i>
    <i name="e_0_energy">   -346.90694399 </i>
   </energy>
  </scstep>
  <scstep>
   <time name="dav">    3.57    3.58</time>
   <time name="total">    4.01    4.05</time>
   <energy>
    <i name="e_fr_energy">   -346.90694407 </i>
    <i name="e_wo_entrp">   -346.90694407 </i>
    <i name="e_0_energy">   -346.90694407 </i>
   </energy>
  </scstep>
  <scstep>
   <time name="dav">    3.47    3.48</time>
   <time name="total">    3.91    3.92</time>
   <energy>
    <i name="e_fr_energy">   -346.90694405 </i>
    <i name="e_wo_entrp">   -346.90694405 </i>
    <i name="e_0_energy">   -346.90694405 </i>
   </energy>
  </scstep>
  <scstep>
   <time name="dav">    3.47    3.48</time>
   <time name="total">    3.91    3.92</time>
   <energy>
    <i name="e_fr_energy">   -346.90694406 </i>
    <i name="e_wo_entrp">   -346.90694406 </i>
    <i name="e_0_energy">   -346.90694406 </i>
   </energy>
  </scstep>
  <scstep>
   <time name="dav">    3.45    3.45</time>
   <time name="total">    3.64    3.93</time>
   <energy>
    <i name="alphaZ">    105.52440745 </i>
    <i name="ewald">  -7265.47132172 </i>
    <i name="hartreedc">   -485.14319881 </i>
    <i name="XCdc">   -577.61229279 </i>
    <i name="pawpsdc">  27883.44023109 </i>
    <i name="pawaedc"> -26764.15815926 </i>
    <i name="eentropy">      0.00000000 </i>
    <i name="bandstr">    160.36344207 </i>
    <i name="atom">   6596.14994790 </i>
    <i name="e_fr_energy">   -346.90694407 </i>
    <i name="e_wo_entrp">   -346.90694407 </i>
    <i name="e_0_energy">   -346.90694407 </i>
   </energy>
  </scstep>
  <structure>
   <crystal>
    <varray name="basis" >
     <v>      10.93252578       0.00000000       0.00000000 </v>
     <v>       0.00000000      10.93252578       0.00000000 </v>
     <v>       0.00000000       0.00000000      10.93252578 </v>
    </varray>
    <i name="volume">   1306.65679237 </i>
    <varray name="rec_basis" >
     <v>       0.09147017       0.00000000       0.00000000 </v>
     <v>       0.00000000       0.09147017       0.00000000 </v>
     <v>       0.00000000       0.00000000       0.09147017 </v>
    </varray>
   </crystal>
   <varray name="positions" >
    <v>       0.44024411       0.43750000       0.43750000 </v>
    <v>       0.93750000       0.43750000       0.43750000 </v>
    <v>       0.43750000       0.93750000       0.43750000 </v>
    <v>       0.93750000       0.93750000       0.43750000 </v>
    <v>       0.43750000       0.43750000       0.93750000 </v>
    <v>       0.93750000       0.43750000       0.93750000 </v>
    <v>       0.43750000       0.93750000       0.93750000 </v>
    <v>       0.93750000       0.93750000       0.93750000 </v>
    <v>       0.43750000       0.18750000       0.18750000 </v>
    <v>       0.93750000       0.18750000       0.18750000 </v>
    <v>       0.43750000       0.68750000       0.18750000 </v>
    <v>       0.93750000       0.68750000       0.18750000 </v>
    <v>       0.43750000       0.18750000       0.68750000 </v>
    <v>       0.93750000       0.18750000       0.68750000 </v>
    <v>       0.43750000       0.68750000       0.68750000 </v>
    <v>       0.93750000       0.68750000       0.68750000 </v>
    <v>       0.18750000       0.43750000       0.18750000 </v>
    <v>       0.68750000       0.43750000       0.18750000 </v>
    <v>       0.19024411       0.93750000       0.18750000 </v>
    <v>       0.68750000       0.93750000       0.18750000 </v>
    <v>       0.18750000       0.43750000       0.68750000 </v>
    <v>       0.68750000       0.43750000       0.68750000 </v>
    <v>       0.18750000       0.93750000       0.68750000 </v>
    <v>       0.68750000       0.93750000       0.68750000 </v>
    <v>       0.18750000       0.18750000       0.43750000 </v>
    <v>       0.68750000       0.18750000       0.43750000 </v>
    <v>       0.18750000       0.68750000       0.43750000 </v>
    <v>       0.68750000       0.68750000       0.43750000 </v>
    <v>       0.18750000       0.18750000       0.93750000 </v>
    <v>       0.68750000       0.18750000       0.93750000 </v>
    <v>       0.18750000       0.68750000       0.93750000 </v>
    <v>       0.68750000       0.68750000       0.93750000 </v>
    <v>       0.06250000       0.06250000       0.06250000 </v>
    <v>       0.56250000       0.06250000       0.06250000 </v>
    <v>       0.06250000       0.56250000       0.06250000 </v>
    <v>       0.56250000       0.56250000       0.06250000 </v>
    <v>       0.06250000       0.06250000       0.56250000 </v>
    <v>       0.56250000       0.06250000       0.56250000 </v>
    <v>       0.06250000       0.56250000       0.56250000 </v>
    <v>       0.56250000       0.56250000       0.56250000 </v>
    <v>       0.06250000       0.31250000       0.31250000 </v>
    <v>       0.56250000       0.31250000       0.31250000 </v>
    <v>       0.06250000       0.81250000       0.31250000 </v>
    <v>       0.56250000       0.81250000       0.31250000 </v>
    <v>       0.06250000       0.31250000       0.81250000 </v>
    <v>       0.56250000       0.31250000       0.81250000 </v>
    <v>       0.06250000       0.81250000       0.81250000 </v>
    <v>       0.56250000       0.81250000       0.81250000 </v>
    <v>       0.31250000       0.06250000       0.31250000 </v>
    <v>       0.81250000       0.06250000       0.31250000 </v>
    <v>       0.31250000       0.56250000       0.31250000 </v>
    <v>       0.81250000       0.56250000       0.31250000 </v>
    <v>       0.31250000       0.06250000       0.81250000 </v>
    <v>       0.81250000       0.06250000       0.81250000 </v>
    <v>       0.31250000       0.56250000       0.81250000 </v>
    <v>       0.81250000       0.56250000       0.81250000 </v>
    <v>       0.31250000       0.31250000       0.06250000 </v>
    <v>       0.81250000       0.31250000       0.06250000 </v>
    <v>       0.31250000       0.81250000       0.06250000 </v>
    <v>       0.81250000       0.81250000       0.06250000 </v>
    <v>       0.31250000       0.31250000       0.56250000 </v>
    <v>       0.81250000       0.31250000       0.56250000 </v>
    <v>       0.31250000       0.81250000       0.56250000 </v>
    <v>       0.81250000       0.81250000       0.56250000 </v>
   </varray>
  </structure>
  <varray name="forces" >
   <v>      -0.38612138       0.00021620      -0.00183766 </v>
   <v>       0.00156665       0.00023102       0.00186099 </v>
   <v>       0.00712340       0.00276908       0.00569347 </v>
   <v>       0.00546714       0.00267713      -0.00555726 </v>
   <v>       0.00234048      -0.00022937       0.00184698 </v>
   <v>       0.00084088      -0.00022585      -0.00186273 </v>
   <v>      -0.00574771      -0.00276162      -0.00567627 </v>
   <v>       0.00622320      -0.00266748       0.00555870 </v>
   <v>      -0.00708577       0.00845168       0.00554844 </v>
   <v>       0.00562348      -0.00533569       0.00289550 </v>
   <v>      -0.00697021      -0.00302074      -0.00544091 </v>
   <v>       0.00564904       0.00579310      -0.00290559 </v>
   <v>      -0.01175755      -0.00451745       0.00289426 </v>
   <v>       0.00101660       0.00162758       0.00046258 </v>
   <v>      -0.01185801      -0.00092405      -0.00300508 </v>
   <v>       0.00099156      -0.00208953      -0.00045482 </v>
   <v>       0.00696200      -0.00267187       0.00555696 </v>
   <v>       0.00563064      -0.00276338      -0.00569253 </v>
   <v>      -0.38611735      -0.00024463      -0.00187150 </v>
   <v>       0.00157068      -0.00022868       0.00184766 </v>
   <v>      -0.00590379       0.00267916      -0.00557346 </v>
   <v>       0.00638059       0.00277318       0.00569183 </v>
   <v>       0.00233263       0.00023056       0.00186175 </v>
   <v>       0.00084500       0.00023411      -0.00184621 </v>
   <v>      -0.00723712       0.00279249      -0.00543638 </v>
   <v>       0.00577489      -0.00591730      -0.00299540 </v>
   <v>      -0.00712103      -0.00823573       0.00532990 </v>
   <v>       0.00580044       0.00545466       0.00300514 </v>
   <v>      -0.01176119       0.00080421      -0.00289196 </v>
   <v>       0.00102062       0.00207920      -0.00046519 </v>
   <v>      -0.01186153       0.00462834       0.00300272 </v>
   <v>       0.00099557      -0.00162127       0.00045722 </v>
   <v>       0.09253934      -0.06020102       0.06172032 </v>
   <v>       0.00593856      -0.00021756       0.00158752 </v>
   <v>      -0.00081443      -0.00023754       0.00184780 </v>
   <v>      -0.00081458       0.00057307       0.00163314 </v>
   <v>      -0.00081360      -0.00064558       0.00154101 </v>
   <v>      -0.00081356       0.00021565       0.00185029 </v>
   <v>       0.00585699       0.00023484       0.00158799 </v>
   <v>       0.09526741       0.06536810       0.06685053 </v>
   <v>      -0.00170978      -0.00002081      -0.00215676 </v>
   <v>       0.09645984      -0.06546522      -0.06680671 </v>
   <v>       0.09369760       0.06036497      -0.06162375 </v>
   <v>      -0.00175144      -0.00002075      -0.00211503 </v>
   <v>       0.00675543       0.00001518      -0.00127614 </v>
   <v>      -0.00201079      -0.00046498      -0.00167094 </v>
   <v>      -0.00196793       0.00049265      -0.00164362 </v>
   <v>       0.00687387       0.00001438      -0.00132532 </v>
   <v>       0.09437413       0.06523023       0.06734338 </v>
   <v>       0.00038632       0.00026987       0.00161662 </v>
   <v>       0.09159546      -0.06002571       0.06218344 </v>
   <v>       0.00034103      -0.00030424       0.00155792 </v>
   <v>       0.00466292       0.00053546       0.00160004 </v>
   <v>       0.00008361      -0.00009484       0.00134756 </v>
   <v>       0.00477777      -0.00056136       0.00157541 </v>
   <v>       0.00012632       0.00004506       0.00139298 </v>
   <v>      -0.00290883       0.00032208      -0.00210091 </v>
   <v>       0.00128016       0.00010474      -0.00129049 </v>
   <v>       0.10193523      -0.06543487      -0.06678408 </v>
   <v>      -0.00081105      -0.00016349      -0.00165601 </v>
   <v>       0.09929085       0.06027281      -0.06164766 </v>
   <v>      -0.00081243       0.00014982      -0.00165861 </v>
   <v>      -0.00290757      -0.00032188      -0.00217105 </v>
   <v>       0.00128027      -0.00001614      -0.00131000 </v>
  </varray>
  <varray name="stress" >
   <v>      -0.01747554       0.00000172      -0.00001513 </v>
   <v>       0.00000171       0.02078603       0.66969804 </v>
   <v>      -0.00001512       0.66969803       0.02069704 </v>
  </varray>
  <energy>
   <i name="e_fr_energy">   -346.90694407 </i>
   <i name="e_wo_entrp">   -346.90694407 </i>
   <i name="e_0_energy">      0.00000000 </i>
  </energy>
  <time name="totalsc">  106.18  106.86</time>
  <eigenvalues>
   <array>
    <dimension dim="1">band</dimension>
    <dimension dim="2">kpoint</dimension>
    <dimension dim="3">spin</dimension>
    <field>eigene</field>
    <field>occ</field>
    <set>
     <set comment="spin 1">
      <set comment="kpoint 1">
       <r>   -5.9931    1.0000 </r>
       <r>   -5.4692    1.0000 </r>
       <r>   -5.4638    1.0000 </r>
       <r>   -5.4616    1.0000 </r>
       <r>   -4.9697    1.0000 </r>
       <r>   -4.9645    1.0000 </r>
       <r>   -4.9623    1.0000 </r>
       <r>   -4.5312    1.0000 </r>
       <r>   -4.4366    1.0000 </r>
       <r>   -4.4312    1.0000 </r>
       <r>   -4.4285    1.0000 </r>
       <r>   -4.0255    1.0000 </r>
       <r>   -4.0203    1.0000 </r>
       <r>   -4.0160    1.0000 </r>
       <r>   -4.0153    1.0000 </r>
       <r>   -4.0129    1.0000 </r>
       <r>   -4.0114    1.0000 </r>
       <r>   -3.8268    1.0000 </r>
       <r>   -3.8261    1.0000 </r>
       <r>   -3.8220    1.0000 </r>
       <r>   -3.3312    1.0000 </r>
       <r>   -3.3266    1.0000 </r>
       <r>   -3.3220    1.0000 </r>
       <r>   -2.9627    1.0000 </r>
       <r>   -2.9602    1.0000 </r>
       <r>   -2.9557    1.0000 </r>
       <r>   -2.7998    1.0000 </r>
       <r>   -2.7938    1.0000 </r>
       <r>   -2.7906    1.0000 </r>
       <r>   -2.7895    1.0000 </r>
       <r>   -2.7869    1.0000 </r>
       <r>   -2.7860    1.0000 </r>
       <r>   -1.2591    1.0000 </r>
       <r>   -1.2505    1.0000 </r>
       <r>   -1.2482    1.0000 </r>
       <r>   -1.2470    1.0000 </r>
       <r>   -1.2437    1.0000 </r>
       <r>   -1.2421    1.0000 </r>
       <r>   -1.1548    1.0000 </r>
       <r>   -1.1494    1.0000 </r>
       <r>   -1.1467    1.0000 </r>
       <r>   -1.0373    1.0000 </r>
       <r>   -1.0280    1.0000 </r>
       <r>   -1.0277    1.0000 </r>
       <r>   -0.9585    1.0000 </r>
       <r>   -0.9478    1.0000 </r>
       <r>   -0.9459    1.0000 </r>
       <r>   -0.2482    1.0000 </r>
       <r>   -0.1688    1.0000 </r>
       <r>   -0.1614    1.0000 </r>
       <r>   -0.1598    1.0000 </r>
       <r>   -0.1582    1.0000 </r>
       <r>   -0.1530    1.0000 </r>
       <r>   -0.1508    1.0000 </r>
       <r>    0.7058    1.0000 </r>
       <r>    0.7144    1.0000 </r>
       <r>    0.7158    1.0000 </r>
       <r>    1.0417    1.0000 </r>
       <r>    1.0494    1.0000 </r>
       <r>    1.0503    1.0000 </r>
       <r>    1.6527    1.0000 </r>
       <r>    1.6537    1.0000 </r>
       <r>    1.6565    1.0000 </r>
       <r>    1.6578    1.0000 </r>
       <r>    1.6597    1.0000 </r>
       <r>    1.6621    1.0000 </r>
       <r>    1.7136    1.0000 </r>
       <r>    1.7182    1.0000 </r>
       <r>    1.7195    1.0000 </r>
       <r>    2.2632    1.0000 </r>
       <r>    2.2666    1.0000 </r>
       <r>    2.2678    1.0000 </r>
       <r>    2.3672    1.0000 </r>
       <r>    2.3686    1.0000 </r>
       <r>    2.3702    1.0000 </r>
       <r>    2.3721    1.0000 </r>
       <r>    2.3765    1.0000 </r>
       <r>    2.3785    1.0000 </r>
       <r>    2.4221    1.0000 </r>
       <r>    2.4285    1.0000 </r>
       <r>    2.4305    1.0000 </r>
       <r>    2.7273    1.0000 </r>
       <r>    2.7335    1.0000 </r>
       <r>    2.7346    1.0000 </r>
       <r>    2.7354    1.0000 </r>
       <r>    2.7383    1.0000 </r>
       <r>    2.7398    1.0000 </r>
       <r>    2.9989    1.0000 </r>
       <r>    2.9995    1.0000 </r>
       <r>    3.0022    1.0000 </r>
       <r>    3.0093    1.0000 </r>
       <r>    3.0173    1.0000 </r>
       <r>    3.0179    1.0000 </r>
       <r>    3.3555    1.0000 </r>
       <r>    3.3617    1.0000 </r>
       <r>    3.3625    1.0000 </r>
       <r>    3.3795    1.0000 </r>
       <r>    3.3810    1.0000 </r>
       <r>    3.3841    1.0000 </r>
       <r>    3.4650    1.0000 </r>
       <r>    3.4668    1.0000 </r>
       <r>    3.4716    1.0000 </r>
       <r>    3.7326    1.0000 </r>
       <r>    3.7350    1.0000 </r>
       <r>    3.7382    1.0000 </r>
       <r>    3.7411    1.0000 </r>
       <r>    3.7421    1.0000 </r>
       <r>    3.7430    1.0000 </r>
       <r>    3.7789    1.0000 </r>
       <r>    3.7808    1.0000 </r>
       <r>    3.7861    1.0000 </r>
       <r>    4.0367    1.0000 </r>
       <r>    4.0980    1.0000 </r>
       <r>    4.0991    1.0000 </r>
       <r>    4.1035    1.0000 </r>
       <r>    4.3394    1.0000 </r>
       <r>    4.3414    1.0000 </r>
       <r>    4.3478    1.0000 </r>
       <r>    4.3956    1.0000 </r>
       <r>    4.4037    1.0000 </r>
       <r>    4.4049    1.0000 </r>
       <r>    4.5593    1.0000 </r>
       <r>    4.5686    1.0000 </r>
       <r>    4.8687    1.0000 </r>
       <r>    4.8705    1.0000 </r>
       <r>    4.8788    1.0000 </r>
       <r>    5.3466    1.0000 </r>
       <r>    5.3574    1.0000 </r>
       <r>    6.5635    0.0000 </r>
       <r>    6.5636    0.0000 </r>
       <r>    6.5678    0.0000 </r>
       <r>    7.0008    0.0000 </r>
       <r>    7.0043    0.0000 </r>
       <r>    7.0105    0.0000 </r>
       <r>    7.2351    0.0000 </r>
       <r>    7.4880    0.0000 </r>
       <r>    7.4917    0.0000 </r>
       <r>    7.4970    0.0000 </r>
       <r>    7.6145    0.0000 </r>
       <r>    7.6196    0.0000 </r>
       <r>    7.6205    0.0000 </r>
       <r>    7.7776    0.0000 </r>
       <r>    7.7788    0.0000 </r>
       <r>    7.7839    0.0000 </r>
       <r>    7.8000    0.0000 </r>
       <r>    7.8005    0.0000 </r>
       <r>    7.8059    0.0000 </r>
       <r>    8.0207    0.0000 </r>
       <r>    8.0270    0.0000 </r>
       <r>    8.0291    0.0000 </r>
       <r>    8.0303    0.0000 </r>
       <r>    8.0316    0.0000 </r>
       <r>    8.0340    0.0000 </r>
       <r>    8.0838    0.0000 </r>
       <r>    8.2924    0.0000 </r>
       <r>    8.2940    0.0000 </r>
       <r>    8.2991    0.0000 </r>
       <r>    8.4931    0.0000 </r>
       <r>    8.5003    0.0000 </r>
       <r>    8.5015    0.0000 </r>
       <r>    8.5035    0.0000 </r>
       <r>    8.5067    0.0000 </r>
       <r>    8.5197    0.0000 </r>
       <r>    8.5459    0.0000 </r>
      </set>
      <set comment="kpoint 2">
       <r>   -5.9931    1.0000 </r>
       <r>   -5.4674    1.0000 </r>
       <r>   -5.4649    1.0000 </r>
       <r>   -5.4624    1.0000 </r>
       <r>   -4.9680    1.0000 </r>
       <r>   -4.9655    1.0000 </r>
       <r>   -4.9629    1.0000 </r>
       <r>   -4.5313    1.0000 </r>
       <r>   -4.4346    1.0000 </r>
       <r>   -4.4321    1.0000 </r>
       <r>   -4.4297    1.0000 </r>
       <r>   -4.0254    1.0000 </r>
       <r>   -4.0198    1.0000 </r>
       <r>   -4.0164    1.0000 </r>
       <r>   -4.0150    1.0000 </r>
       <r>   -4.0130    1.0000 </r>
       <r>   -4.0118    1.0000 </r>
       <r>   -3.8268    1.0000 </r>
       <r>   -3.8261    1.0000 </r>
       <r>   -3.8220    1.0000 </r>
       <r>   -3.3291    1.0000 </r>
       <r>   -3.3270    1.0000 </r>
       <r>   -3.3237    1.0000 </r>
       <r>   -2.9627    1.0000 </r>
       <r>   -2.9602    1.0000 </r>
       <r>   -2.9558    1.0000 </r>
       <r>   -2.7996    1.0000 </r>
       <r>   -2.7933    1.0000 </r>
       <r>   -2.7910    1.0000 </r>
       <r>   -2.7895    1.0000 </r>
       <r>   -2.7869    1.0000 </r>
       <r>   -2.7862    1.0000 </r>
       <r>   -1.2592    1.0000 </r>
       <r>   -1.2502    1.0000 </r>
       <r>   -1.2487    1.0000 </r>
       <r>   -1.2464    1.0000 </r>
       <r>   -1.2439    1.0000 </r>
       <r>   -1.2422    1.0000 </r>
       <r>   -1.1546    1.0000 </r>
       <r>   -1.1495    1.0000 </r>
       <r>   -1.1466    1.0000 </r>
       <r>   -1.0373    1.0000 </r>
       <r>   -1.0280    1.0000 </r>
       <r>   -1.0276    1.0000 </r>
       <r>   -0.9555    1.0000 </r>
       <r>   -0.9513    1.0000 </r>
       <r>   -0.9455    1.0000 </r>
       <r>   -0.2482    1.0000 </r>
       <r>   -0.1688    1.0000 </r>
       <r>   -0.1614    1.0000 </r>
       <r>   -0.1599    1.0000 </r>
       <r>   -0.1567    1.0000 </r>
       <r>   -0.1541    1.0000 </r>
       <r>   -0.1512    1.0000 </r>
       <r>    0.7065    1.0000 </r>
       <r>    0.7134    1.0000 </r>
       <r>    0.7161    1.0000 </r>
       <r>    1.0421    1.0000 </r>
       <r>    1.0489    1.0000 </r>
       <r>    1.0504    1.0000 </r>
       <r>    1.6527    1.0000 </r>
       <r>    1.6540    1.0000 </r>
       <r>    1.6570    1.0000 </r>
       <r>    1.6577    1.0000 </r>
       <r>    1.6590    1.0000 </r>
       <r>    1.6615    1.0000 </r>
       <r>    1.7145    1.0000 </r>
       <r>    1.7185    1.0000 </r>
       <r>    1.7190    1.0000 </r>
       <r>    2.2631    1.0000 </r>
       <r>    2.2667    1.0000 </r>
       <r>    2.2678    1.0000 </r>
       <r>    2.3674    1.0000 </r>
       <r>    2.3690    1.0000 </r>
       <r>    2.3707    1.0000 </r>
       <r>    2.3723    1.0000 </r>
       <r>    2.3751    1.0000 </r>
       <r>    2.3771    1.0000 </r>
       <r>    2.4229    1.0000 </r>
       <r>    2.4280    1.0000 </r>
       <r>    2.4314    1.0000 </r>
       <r>    2.7273    1.0000 </r>
       <r>    2.7336    1.0000 </r>
       <r>    2.7347    1.0000 </r>
       <r>    2.7359    1.0000 </r>
       <r>    2.7378    1.0000 </r>
       <r>    2.7395    1.0000 </r>
       <r>    2.9989    1.0000 </r>
       <r>    2.9995    1.0000 </r>
       <r>    3.0023    1.0000 </r>
       <r>    3.0097    1.0000 </r>
       <r>    3.0167    1.0000 </r>
       <r>    3.0181    1.0000 </r>
       <r>    3.3562    1.0000 </r>
       <r>    3.3608    1.0000 </r>
       <r>    3.3627    1.0000 </r>
       <r>    3.3796    1.0000 </r>
       <r>    3.3810    1.0000 </r>
       <r>    3.3841    1.0000 </r>
       <r>    3.4647    1.0000 </r>
       <r>    3.4677    1.0000 </r>
       <r>    3.4706    1.0000 </r>
       <r>    3.7324    1.0000 </r>
       <r>    3.7349    1.0000 </r>
       <r>    3.7385    1.0000 </r>
       <r>    3.7410    1.0000 </r>
       <r>    3.7419    1.0000 </r>
       <r>    3.7432    1.0000 </r>
       <r>    3.7788    1.0000 </r>
       <r>    3.7819    1.0000 </r>
       <r>    3.7853    1.0000 </r>
       <r>    4.0367    1.0000 </r>
       <r>    4.0982    1.0000 </r>
       <r>    4.0989    1.0000 </r>
       <r>    4.1035    1.0000 </r>
       <r>    4.3394    1.0000 </r>
       <r>    4.3427    1.0000 </r>
       <r>    4.3463    1.0000 </r>
       <r>    4.3971    1.0000 </r>
       <r>    4.4018    1.0000 </r>
       <r>    4.4052    1.0000 </r>
       <r>    4.5594    1.0000 </r>
       <r>    4.5688    1.0000 </r>
       <r>    4.8685    1.0000 </r>
       <r>    4.8722    1.0000 </r>
       <r>    4.8774    1.0000 </r>
       <r>    5.3466    1.0000 </r>
       <r>    5.3574    1.0000 </r>
       <r>    6.5635    0.0000 </r>
       <r>    6.5636    0.0000 </r>
       <r>    6.5678    0.0000 </r>
       <r>    7.0006    0.0000 </r>
       <r>    7.0062    0.0000 </r>
       <r>    7.0088    0.0000 </r>
       <r>    7.2352    0.0000 </r>
       <r>    7.4879    0.0000 </r>
       <r>    7.4928    0.0000 </r>
       <r>    7.4962    0.0000 </r>
       <r>    7.6145    0.0000 </r>
       <r>    7.6195    0.0000 </r>
       <r>    7.6204    0.0000 </r>
       <r>    7.7777    0.0000 </r>
       <r>    7.7804    0.0000 </r>
       <r>    7.7829    0.0000 </r>
       <r>    7.7996    0.0000 </r>
       <r>    7.8007    0.0000 </r>
       <r>    7.8054    0.0000 </r>
       <r>    8.0209    0.0000 </r>
       <r>    8.0264    0.0000 </r>
       <r>    8.0284    0.0000 </r>
       <r>    8.0304    0.0000 </r>
       <r>    8.0323    0.0000 </r>
       <r>    8.0343    0.0000 </r>
       <r>    8.0838    0.0000 </r>
       <r>    8.2923    0.0000 </r>
       <r>    8.2952    0.0000 </r>
       <r>    8.2981    0.0000 </r>
       <r>    8.4918    0.0000 </r>
       <r>    8.4992    0.0000 </r>
       <r>    8.5012    0.0000 </r>
       <r>    8.5058    0.0000 </r>
       <r>    8.5109    0.0000 </r>
       <r>    8.5232    0.0000 </r>
       <r>    8.5405    0.0000 </r>
      </set>
      <set comment="kpoint 3">
       <r>   -5.9932    1.0000 </r>
       <r>   -5.4680    1.0000 </r>
       <r>   -5.4656    1.0000 </r>
       <r>   -5.4604    1.0000 </r>
       <r>   -4.9689    1.0000 </r>
       <r>   -4.9664    1.0000 </r>
       <r>   -4.9614    1.0000 </r>
       <r>   -4.5332    1.0000 </r>
       <r>   -4.4362    1.0000 </r>
       <r>   -4.4336    1.0000 </r>
       <r>   -4.4285    1.0000 </r>
       <r>   -4.0215    1.0000 </r>
       <r>   -4.0201    1.0000 </r>
       <r>   -4.0174    1.0000 </r>
       <r>   -4.0167    1.0000 </r>
       <r>   -4.0126    1.0000 </r>
       <r>   -4.0077    1.0000 </r>
       <r>   -3.8269    1.0000 </r>
       <r>   -3.8223    1.0000 </r>
       <r>   -3.8218    1.0000 </r>
       <r>   -3.3348    1.0000 </r>
       <r>   -3.3300    1.0000 </r>
       <r>   -3.3256    1.0000 </r>
       <r>   -2.9623    1.0000 </r>
       <r>   -2.9585    1.0000 </r>
       <r>   -2.9557    1.0000 </r>
       <r>   -2.7956    1.0000 </r>
       <r>   -2.7948    1.0000 </r>
       <r>   -2.7922    1.0000 </r>
       <r>   -2.7911    1.0000 </r>
       <r>   -2.7878    1.0000 </r>
       <r>   -2.7816    1.0000 </r>
       <r>   -1.2558    1.0000 </r>
       <r>   -1.2544    1.0000 </r>
       <r>   -1.2505    1.0000 </r>
       <r>   -1.2491    1.0000 </r>
       <r>   -1.2473    1.0000 </r>
       <r>   -1.2390    1.0000 </r>
       <r>   -1.1557    1.0000 </r>
       <r>   -1.1527    1.0000 </r>
       <r>   -1.1474    1.0000 </r>
       <r>   -1.0376    1.0000 </r>
       <r>   -1.0371    1.0000 </r>
       <r>   -1.0282    1.0000 </r>
       <r>   -0.9477    1.0000 </r>
       <r>   -0.9458    1.0000 </r>
       <r>   -0.9343    1.0000 </r>
       <r>   -0.2411    1.0000 </r>
       <r>   -0.1692    1.0000 </r>
       <r>   -0.1671    1.0000 </r>
       <r>   -0.1621    1.0000 </r>
       <r>   -0.1605    1.0000 </r>
       <r>   -0.1589    1.0000 </r>
       <r>   -0.1515    1.0000 </r>
       <r>    0.7127    1.0000 </r>
       <r>    0.7143    1.0000 </r>
       <r>    0.7227    1.0000 </r>
       <r>    1.0438    1.0000 </r>
       <r>    1.0450    1.0000 </r>
       <r>    1.0524    1.0000 </r>
       <r>    1.6519    1.0000 </r>
       <r>    1.6542    1.0000 </r>
       <r>    1.6563    1.0000 </r>
       <r>    1.6576    1.0000 </r>
       <r>    1.6603    1.0000 </r>
       <r>    1.6609    1.0000 </r>
       <r>    1.7122    1.0000 </r>
       <r>    1.7135    1.0000 </r>
       <r>    1.7191    1.0000 </r>
       <r>    2.2676    1.0000 </r>
       <r>    2.2688    1.0000 </r>
       <r>    2.2722    1.0000 </r>
       <r>    2.3637    1.0000 </r>
       <r>    2.3653    1.0000 </r>
       <r>    2.3696    1.0000 </r>
       <r>    2.3718    1.0000 </r>
       <r>    2.3733    1.0000 </r>
       <r>    2.3743    1.0000 </r>
       <r>    2.4192    1.0000 </r>
       <r>    2.4213    1.0000 </r>
       <r>    2.4278    1.0000 </r>
       <r>    2.7304    1.0000 </r>
       <r>    2.7317    1.0000 </r>
       <r>    2.7346    1.0000 </r>
       <r>    2.7353    1.0000 </r>
       <r>    2.7365    1.0000 </r>
       <r>    2.7424    1.0000 </r>
       <r>    2.9946    1.0000 </r>
       <r>    2.9992    1.0000 </r>
       <r>    2.9997    1.0000 </r>
       <r>    3.0097    1.0000 </r>
       <r>    3.0106    1.0000 </r>
       <r>    3.0172    1.0000 </r>
       <r>    3.3614    1.0000 </r>
       <r>    3.3621    1.0000 </r>
       <r>    3.3672    1.0000 </r>
       <r>    3.3850    1.0000 </r>
       <r>    3.3875    1.0000 </r>
       <r>    3.3904    1.0000 </r>
       <r>    3.4617    1.0000 </r>
       <r>    3.4664    1.0000 </r>
       <r>    3.4687    1.0000 </r>
       <r>    3.7395    1.0000 </r>
       <r>    3.7405    1.0000 </r>
       <r>    3.7415    1.0000 </r>
       <r>    3.7441    1.0000 </r>
       <r>    3.7472    1.0000 </r>
       <r>    3.7502    1.0000 </r>
       <r>    3.7748    1.0000 </r>
       <r>    3.7803    1.0000 </r>
       <r>    3.7833    1.0000 </r>
       <r>    4.0443    1.0000 </r>
       <r>    4.0922    1.0000 </r>
       <r>    4.0974    1.0000 </r>
       <r>    4.0979    1.0000 </r>
       <r>    4.3348    1.0000 </r>
       <r>    4.3406    1.0000 </r>
       <r>    4.3419    1.0000 </r>
       <r>    4.4064    1.0000 </r>
       <r>    4.4077    1.0000 </r>
       <r>    4.4175    1.0000 </r>
       <r>    4.5568    1.0000 </r>
       <r>    4.5665    1.0000 </r>
       <r>    4.8614    1.0000 </r>
       <r>    4.8694    1.0000 </r>
       <r>    4.8716    1.0000 </r>
       <r>    5.3421    1.0000 </r>
       <r>    5.3527    1.0000 </r>
       <r>    6.5590    0.0000 </r>
       <r>    6.5631    0.0000 </r>
       <r>    6.5632    0.0000 </r>
       <r>    6.9983    0.0000 </r>
       <r>    7.0047    0.0000 </r>
       <r>    7.0082    0.0000 </r>
       <r>    7.2323    0.0000 </r>
       <r>    7.4841    0.0000 </r>
       <r>    7.4897    0.0000 </r>
       <r>    7.4935    0.0000 </r>
       <r>    7.6186    0.0000 </r>
       <r>    7.6195    0.0000 </r>
       <r>    7.6245    0.0000 </r>
       <r>    7.7748    0.0000 </r>
       <r>    7.7810    0.0000 </r>
       <r>    7.7819    0.0000 </r>
       <r>    7.7978    0.0000 </r>
       <r>    7.8016    0.0000 </r>
       <r>    7.8027    0.0000 </r>
       <r>    8.0264    0.0000 </r>
       <r>    8.0297    0.0000 </r>
       <r>    8.0309    0.0000 </r>
       <r>    8.0320    0.0000 </r>
       <r>    8.0343    0.0000 </r>
       <r>    8.0398    0.0000 </r>
       <r>    8.0794    0.0000 </r>
       <r>    8.2908    0.0000 </r>
       <r>    8.2959    0.0000 </r>
       <r>    8.2975    0.0000 </r>
       <r>    8.4953    0.0000 </r>
       <r>    8.4989    0.0000 </r>
       <r>    8.5021    0.0000 </r>
       <r>    8.5030    0.0000 </r>
       <r>    8.5109    0.0000 </r>
       <r>    8.5187    0.0000 </r>
       <r>    8.5432    0.0000 </r>
      </set>
      <set comment="kpoint 4">
       <r>   -5.9932    1.0000 </r>
       <r>   -5.4671    1.0000 </r>
       <r>   -5.4646    1.0000 </r>
       <r>   -5.4623    1.0000 </r>
       <r>   -4.9680    1.0000 </r>
       <r>   -4.9655    1.0000 </r>
       <r>   -4.9631    1.0000 </r>
       <r>   -4.5333    1.0000 </r>
       <r>   -4.4351    1.0000 </r>
       <r>   -4.4328    1.0000 </r>
       <r>   -4.4304    1.0000 </r>
       <r>   -4.0210    1.0000 </r>
       <r>   -4.0198    1.0000 </r>
       <r>   -4.0178    1.0000 </r>
       <r>   -4.0163    1.0000 </r>
       <r>   -4.0133    1.0000 </r>
       <r>   -4.0078    1.0000 </r>
       <r>   -3.8269    1.0000 </r>
       <r>   -3.8223    1.0000 </r>
       <r>   -3.8218    1.0000 </r>
       <r>   -3.3331    1.0000 </r>
       <r>   -3.3297    1.0000 </r>
       <r>   -3.3276    1.0000 </r>
       <r>   -2.9623    1.0000 </r>
       <r>   -2.9585    1.0000 </r>
       <r>   -2.9557    1.0000 </r>
       <r>   -2.7954    1.0000 </r>
       <r>   -2.7948    1.0000 </r>
       <r>   -2.7922    1.0000 </r>
       <r>   -2.7907    1.0000 </r>
       <r>   -2.7883    1.0000 </r>
       <r>   -2.7817    1.0000 </r>
       <r>   -1.2558    1.0000 </r>
       <r>   -1.2538    1.0000 </r>
       <r>   -1.2513    1.0000 </r>
       <r>   -1.2486    1.0000 </r>
       <r>   -1.2476    1.0000 </r>
       <r>   -1.2391    1.0000 </r>
       <r>   -1.1557    1.0000 </r>
       <r>   -1.1528    1.0000 </r>
       <r>   -1.1471    1.0000 </r>
       <r>   -1.0375    1.0000 </r>
       <r>   -1.0372    1.0000 </r>
       <r>   -1.0282    1.0000 </r>
       <r>   -0.9482    1.0000 </r>
       <r>   -0.9422    1.0000 </r>
       <r>   -0.9374    1.0000 </r>
       <r>   -0.2411    1.0000 </r>
       <r>   -0.1688    1.0000 </r>
       <r>   -0.1659    1.0000 </r>
       <r>   -0.1636    1.0000 </r>
       <r>   -0.1605    1.0000 </r>
       <r>   -0.1589    1.0000 </r>
       <r>   -0.1514    1.0000 </r>
       <r>    0.7124    1.0000 </r>
       <r>    0.7153    1.0000 </r>
       <r>    0.7221    1.0000 </r>
       <r>    1.0437    1.0000 </r>
       <r>    1.0455    1.0000 </r>
       <r>    1.0520    1.0000 </r>
       <r>    1.6518    1.0000 </r>
       <r>    1.6548    1.0000 </r>
       <r>    1.6563    1.0000 </r>
       <r>    1.6569    1.0000 </r>
       <r>    1.6599    1.0000 </r>
       <r>    1.6608    1.0000 </r>
       <r>    1.7133    1.0000 </r>
       <r>    1.7141    1.0000 </r>
       <r>    1.7182    1.0000 </r>
       <r>    2.2676    1.0000 </r>
       <r>    2.2689    1.0000 </r>
       <r>    2.2722    1.0000 </r>
       <r>    2.3635    1.0000 </r>
       <r>    2.3649    1.0000 </r>
       <r>    2.3697    1.0000 </r>
       <r>    2.3712    1.0000 </r>
       <r>    2.3729    1.0000 </r>
       <r>    2.3744    1.0000 </r>
       <r>    2.4199    1.0000 </r>
       <r>    2.4227    1.0000 </r>
       <r>    2.4269    1.0000 </r>
       <r>    2.7306    1.0000 </r>
       <r>    2.7322    1.0000 </r>
       <r>    2.7340    1.0000 </r>
       <r>    2.7351    1.0000 </r>
       <r>    2.7363    1.0000 </r>
       <r>    2.7424    1.0000 </r>
       <r>    2.9947    1.0000 </r>
       <r>    2.9993    1.0000 </r>
       <r>    2.9996    1.0000 </r>
       <r>    3.0101    1.0000 </r>
       <r>    3.0106    1.0000 </r>
       <r>    3.0169    1.0000 </r>
       <r>    3.3612    1.0000 </r>
       <r>    3.3631    1.0000 </r>
       <r>    3.3665    1.0000 </r>
       <r>    3.3850    1.0000 </r>
       <r>    3.3876    1.0000 </r>
       <r>    3.3904    1.0000 </r>
       <r>    3.4624    1.0000 </r>
       <r>    3.4655    1.0000 </r>
       <r>    3.4687    1.0000 </r>
       <r>    3.7394    1.0000 </r>
       <r>    3.7406    1.0000 </r>
       <r>    3.7416    1.0000 </r>
       <r>    3.7439    1.0000 </r>
       <r>    3.7472    1.0000 </r>
       <r>    3.7505    1.0000 </r>
       <r>    3.7758    1.0000 </r>
       <r>    3.7794    1.0000 </r>
       <r>    3.7834    1.0000 </r>
       <r>    4.0443    1.0000 </r>
       <r>    4.0921    1.0000 </r>
       <r>    4.0972    1.0000 </r>
       <r>    4.0981    1.0000 </r>
       <r>    4.3355    1.0000 </r>
       <r>    4.3395    1.0000 </r>
       <r>    4.3421    1.0000 </r>
       <r>    4.4060    1.0000 </r>
       <r>    4.4099    1.0000 </r>
       <r>    4.4155    1.0000 </r>
       <r>    4.5570    1.0000 </r>
       <r>    4.5666    1.0000 </r>
       <r>    4.8627    1.0000 </r>
       <r>    4.8678    1.0000 </r>
       <r>    4.8718    1.0000 </r>
       <r>    5.3421    1.0000 </r>
       <r>    5.3527    1.0000 </r>
       <r>    6.5590    0.0000 </r>
       <r>    6.5631    0.0000 </r>
       <r>    6.5632    0.0000 </r>
       <r>    7.0001    0.0000 </r>
       <r>    7.0027    0.0000 </r>
       <r>    7.0084    0.0000 </r>
       <r>    7.2323    0.0000 </r>
       <r>    7.4854    0.0000 </r>
       <r>    7.4885    0.0000 </r>
       <r>    7.4936    0.0000 </r>
       <r>    7.6185    0.0000 </r>
       <r>    7.6195    0.0000 </r>
       <r>    7.6246    0.0000 </r>
       <r>    7.7768    0.0000 </r>
       <r>    7.7789    0.0000 </r>
       <r>    7.7825    0.0000 </r>
       <r>    7.7974    0.0000 </r>
       <r>    7.8017    0.0000 </r>
       <r>    7.8023    0.0000 </r>
       <r>    8.0258    0.0000 </r>
       <r>    8.0288    0.0000 </r>
       <r>    8.0309    0.0000 </r>
       <r>    8.0328    0.0000 </r>
       <r>    8.0348    0.0000 </r>
       <r>    8.0399    0.0000 </r>
       <r>    8.0794    0.0000 </r>
       <r>    8.2919    0.0000 </r>
       <r>    8.2947    0.0000 </r>
       <r>    8.2977    0.0000 </r>
       <r>    8.4939    0.0000 </r>
       <r>    8.4993    0.0000 </r>
       <r>    8.5026    0.0000 </r>
       <r>    8.5043    0.0000 </r>
       <r>    8.5084    0.0000 </r>
       <r>    8.5162    0.0000 </r>
       <r>    8.5408    0.0000 </r>
      </set>
     </set>
    </set>
   </array>
  </eigenvalues>
  <separator name="orbital magnetization" >
   <v name="MAGDIPOLOUT">      0.00000000      0.00000000      0.00000000</v>
  </separator>
  <dos>
   <i name="efermi">      5.59777209 </i>
   <total>
    <array>
     <dimension dim="1">gridpoints</dimension>
     <dimension dim="2">spin</dimension>
     <field>energy</field>
     <field>total</field>
     <field>integrated</field>
     <set>
      <set comment="spin 1">
       <r>    -6.7202     0.0000     0.0000 </r>
       <r>    -6.6669     0.0000     0.0000 </r>
       <r>    -6.6136     0.0000     0.0000 </r>
       <r>    -6.5603     0.0000     0.0000 </r>
       <r>    -6.5069     0.0000     0.0000 </r>
       <r>    -6.4536     0.0000     0.0000 </r>
       <r>    -6.4003     0.0000     0.0000 </r>
       <r>    -6.3470     0.0000     0.0000 </r>
       <r>    -6.2937     0.0000     0.0000 </r>
       <r>    -6.2404     0.0000     0.0000 </r>
       <r>    -6.1871     0.0000     0.0000 </r>
       <r>    -6.1338     0.0013     0.0001 </r>
       <r>    -6.0805     0.2527     0.0135 </r>
       <r>    -6.0272     6.0560     0.3364 </r>
       <r>    -5.9738    20.2381     1.4153 </r>
       <r>    -5.9205    10.2190     1.9601 </r>
       <r>    -5.8672     0.7424     1.9996 </r>
       <r>    -5.8139     0.0069     2.0000 </r>
       <r>    -5.7606     0.0000     2.0000 </r>
       <r>    -5.7073     0.0000     2.0000 </r>
       <r>    -5.6540     0.0000     2.0000 </r>
       <r>    -5.6007     0.0071     2.0004 </r>
       <r>    -5.5474     1.1086     2.0595 </r>
       <r>    -5.4941    21.8872     3.2263 </r>
       <r>    -5.4407    61.5154     6.5057 </r>
       <r>    -5.3874    26.3887     7.9125 </r>
       <r>    -5.3341     1.6292     7.9993 </r>
       <r>    -5.2808     0.0129     8.0000 </r>
       <r>    -5.2275     0.0000     8.0000 </r>
       <r>    -5.1742     0.0000     8.0000 </r>
       <r>    -5.1209     0.0007     8.0000 </r>
       <r>    -5.0676     0.2242     8.0120 </r>
       <r>    -5.0143     9.2961     8.5076 </r>
       <r>    -4.9610    52.5223    11.3075 </r>
       <r>    -4.9076    44.7335    13.6923 </r>
       <r>    -4.8543     5.6760    13.9949 </r>
       <r>    -4.8010     0.0961    14.0000 </r>
       <r>    -4.7477     0.0002    14.0000 </r>
       <r>    -4.6944     0.0001    14.0000 </r>
       <r>    -4.6411     0.0391    14.0021 </r>
       <r>    -4.5878     2.1464    14.1165 </r>
       <r>    -4.5345    15.8636    14.9622 </r>
       <r>    -4.4812    26.2203    16.3600 </r>
       <r>    -4.4278    55.2660    19.3062 </r>
       <r>    -4.3745    44.7636    21.6926 </r>
       <r>    -4.3212     5.6702    21.9949 </r>
       <r>    -4.2679     0.0960    22.0000 </r>
       <r>    -4.2146     0.0002    22.0000 </r>
       <r>    -4.1613     0.0055    22.0003 </r>
       <r>    -4.1080     1.1483    22.0615 </r>
       <r>    -4.0547    30.7685    23.7018 </r>
       <r>    -4.0014   117.4970    29.9655 </r>
       <r>    -3.9481    69.5034    33.6708 </r>
       <r>    -3.8947     8.7364    34.1365 </r>
       <r>    -3.8414    32.8184    35.8861 </r>
       <r>    -3.7881    59.8810    39.0783 </r>
       <r>    -3.7348    16.6392    39.9654 </r>
       <r>    -3.6815     0.6466    39.9998 </r>
       <r>    -3.6282     0.0031    40.0000 </r>
       <r>    -3.5749     0.0000    40.0000 </r>
       <r>    -3.5216     0.0000    40.0000 </r>
       <r>    -3.4683     0.0046    40.0002 </r>
       <r>    -3.4150     0.8293    40.0445 </r>
       <r>    -3.3616    18.8057    41.0470 </r>
       <r>    -3.3083    60.6651    44.2811 </r>
       <r>    -3.2550    30.0482    45.8829 </r>
       <r>    -3.2017     2.1756    45.9989 </r>
       <r>    -3.1484     0.0205    46.0000 </r>
       <r>    -3.0951     0.0072    46.0004 </r>
       <r>    -3.0418     1.1109    46.0596 </r>
       <r>    -2.9885    21.8973    47.2269 </r>
       <r>    -2.9352    61.5066    50.5059 </r>
       <r>    -2.8819    27.5840    51.9764 </r>
       <r>    -2.8285    33.0719    53.7394 </r>
       <r>    -2.7752   117.9455    60.0271 </r>
       <r>    -2.7219    68.5172    63.6798 </r>
       <r>    -2.6686     5.9382    63.9963 </r>
       <r>    -2.6153     0.0686    64.0000 </r>
       <r>    -2.5620     0.0001    64.0000 </r>
       <r>    -2.5087     0.0000    64.0000 </r>
       <r>    -2.4554     0.0000    64.0000 </r>
       <r>    -2.4021     0.0000    64.0000 </r>
       <r>    -2.3488     0.0000    64.0000 </r>
       <r>    -2.2954     0.0000    64.0000 </r>
       <r>    -2.2421     0.0000    64.0000 </r>
       <r>    -2.1888     0.0000    64.0000 </r>
       <r>    -2.1355     0.0000    64.0000 </r>
       <r>    -2.0822     0.0000    64.0000 </r>
       <r>    -2.0289     0.0000    64.0000 </r>
       <r>    -1.9756     0.0000    64.0000 </r>
       <r>    -1.9223     0.0000    64.0000 </r>
       <r>    -1.8690     0.0000    64.0000 </r>
       <r>    -1.8157     0.0000    64.0000 </r>
       <r>    -1.7623     0.0000    64.0000 </r>
       <r>    -1.7090     0.0000    64.0000 </r>
       <r>    -1.6557     0.0000    64.0000 </r>
       <r>    -1.6024     0.0000    64.0000 </r>
       <r>    -1.5491     0.0000    64.0000 </r>
       <r>    -1.4958     0.0000    64.0000 </r>
       <r>    -1.4425     0.0000    64.0000 </r>
       <r>    -1.3892     0.0099    64.0005 </r>
       <r>    -1.3359     1.6857    64.0904 </r>
       <r>    -1.2826    37.3374    66.0809 </r>
       <r>    -1.2292   121.9975    72.5845 </r>
       <r>    -1.1759    86.6422    77.2034 </r>
       <r>    -1.1226    66.7572    80.7623 </r>
       <r>    -1.0693    39.1482    82.8493 </r>
       <r>    -1.0160    63.5660    86.2380 </r>
       <r>    -0.9627    67.1644    89.8185 </r>
       <r>    -0.9094    61.5530    93.0999 </r>
       <r>    -0.8561    16.2242    93.9648 </r>
       <r>    -0.8028     0.6564    93.9998 </r>
       <r>    -0.7495     0.0035    94.0000 </r>
       <r>    -0.6961     0.0000    94.0000 </r>
       <r>    -0.6428     0.0000    94.0000 </r>
       <r>    -0.5895     0.0000    94.0000 </r>
       <r>    -0.5362     0.0000    94.0000 </r>
       <r>    -0.4829     0.0000    94.0000 </r>
       <r>    -0.4296     0.0000    94.0000 </r>
       <r>    -0.3763     0.0040    94.0002 </r>
       <r>    -0.3230     0.5122    94.0275 </r>
       <r>    -0.2697     8.7649    94.4948 </r>
       <r>    -0.2164    33.3672    96.2736 </r>
       <r>    -0.1630    99.6646   101.5867 </r>
       <r>    -0.1097   102.3022   107.0404 </r>
       <r>    -0.0564    17.5704   107.9771 </r>
       <r>    -0.0031     0.4278   107.9999 </r>
       <r>     0.0502     0.0013   108.0000 </r>
       <r>     0.1035     0.0000   108.0000 </r>
       <r>     0.1568     0.0000   108.0000 </r>
       <r>     0.2101     0.0000   108.0000 </r>
       <r>     0.2634     0.0000   108.0000 </r>
       <r>     0.3167     0.0000   108.0000 </r>
       <r>     0.3701     0.0000   108.0000 </r>
       <r>     0.4234     0.0000   108.0000 </r>
       <r>     0.4767     0.0000   108.0000 </r>
       <r>     0.5300     0.0000   108.0000 </r>
       <r>     0.5833     0.0136   108.0007 </r>
       <r>     0.6366     1.6464   108.0885 </r>
       <r>     0.6899    26.1849   109.4844 </r>
       <r>     0.7432    61.2290   112.7485 </r>
       <r>     0.7965    22.2856   113.9366 </r>
       <r>     0.8498     1.1815   113.9996 </r>
       <r>     0.9032     0.0110   114.0002 </r>
       <r>     0.9565     0.6043   114.0324 </r>
       <r>     1.0098    15.9288   114.8815 </r>
       <r>     1.0631    59.2787   118.0417 </r>
       <r>     1.1164    33.8520   119.8463 </r>
       <r>     1.1697     2.8509   119.9983 </r>
       <r>     1.2230     0.0316   120.0000 </r>
       <r>     1.2763     0.0000   120.0000 </r>
       <r>     1.3296     0.0000   120.0000 </r>
       <r>     1.3829     0.0000   120.0000 </r>
       <r>     1.4363     0.0000   120.0000 </r>
       <r>     1.4896     0.0003   120.0000 </r>
       <r>     1.5429     0.1475   120.0079 </r>
       <r>     1.5962     9.6893   120.5244 </r>
       <r>     1.6495    87.4532   125.1866 </r>
       <r>     1.7028   145.5259   132.9445 </r>
       <r>     1.7561    79.6418   137.1903 </r>
       <r>     1.8094    14.7083   137.9744 </r>
       <r>     1.8627     0.4790   137.9999 </r>
       <r>     1.9160     0.0020   138.0000 </r>
       <r>     1.9694     0.0000   138.0000 </r>
       <r>     2.0227     0.0000   138.0000 </r>
       <r>     2.0760     0.0000   138.0000 </r>
       <r>     2.1293     0.0053   138.0003 </r>
       <r>     2.1826     0.9159   138.0491 </r>
       <r>     2.2359    19.8990   139.1099 </r>
       <r>     2.2892    63.5734   142.4990 </r>
       <r>     2.3425    75.4033   146.5188 </r>
       <r>     2.3958   146.7571   154.3424 </r>
       <r>     2.4491   112.4401   160.3366 </r>
       <r>     2.5025    29.5066   161.9096 </r>
       <r>     2.5558     1.6822   161.9993 </r>
       <r>     2.6091     0.0587   162.0024 </r>
       <r>     2.6624     4.6073   162.2480 </r>
       <r>     2.7157    61.5601   165.5298 </r>
       <r>     2.7690   120.8120   171.9703 </r>
       <r>     2.8223    36.4945   173.9158 </r>
       <r>     2.8756     1.6041   174.0013 </r>
       <r>     2.9289     3.6305   174.1949 </r>
       <r>     2.9822    53.2920   177.0359 </r>
       <r>     3.0356   120.8233   183.4770 </r>
       <r>     3.0889    44.7583   185.8630 </r>
       <r>     3.1422     2.5492   185.9989 </r>
       <r>     3.1955     0.0201   186.0000 </r>
       <r>     3.2488     0.0901   186.0048 </r>
       <r>     3.3021     6.2908   186.3402 </r>
       <r>     3.3554    65.2091   189.8165 </r>
       <r>     3.4087   120.8458   196.2588 </r>
       <r>     3.4620    81.1978   200.5874 </r>
       <r>     3.5153    54.4437   203.4898 </r>
       <r>     3.5687     9.3432   203.9879 </r>
       <r>     3.6220     0.3189   204.0049 </r>
       <r>     3.6753     7.3075   204.3945 </r>
       <r>     3.7286    81.8944   208.7603 </r>
       <r>     3.7819   164.9197   217.5522 </r>
       <r>     3.8352    75.4491   221.5743 </r>
       <r>     3.8885     7.8455   221.9926 </r>
       <r>     3.9418     0.2430   222.0055 </r>
       <r>     3.9951     3.9013   222.2135 </r>
       <r>     4.0484    27.2414   223.6658 </r>
       <r>     4.1018    65.6959   227.1680 </r>
       <r>     4.1551    47.0202   229.6747 </r>
       <r>     4.2084     6.0076   229.9949 </r>
       <r>     4.2617     1.5449   230.0773 </r>
       <r>     4.3150    25.3598   231.4292 </r>
       <r>     4.3683    77.4625   235.5588 </r>
       <r>     4.4216    82.2676   239.9444 </r>
       <r>     4.4749    35.9926   241.8632 </r>
       <r>     4.5282    14.9772   242.6616 </r>
       <r>     4.5815    40.0745   244.7980 </r>
       <r>     4.6349    20.9065   245.9125 </r>
       <r>     4.6882     1.6239   245.9991 </r>
       <r>     4.7415     0.0344   246.0009 </r>
       <r>     4.7948     1.9467   246.1047 </r>
       <r>     4.8481    28.3272   247.6148 </r>
       <r>     4.9014    60.8932   250.8611 </r>
       <r>     4.9547    20.3702   251.9470 </r>
       <r>     5.0080     0.9879   251.9997 </r>
       <r>     5.0613     0.0062   252.0000 </r>
       <r>     5.1146     0.0000   252.0000 </r>
       <r>     5.1680     0.0000   252.0000 </r>
       <r>     5.2213     0.0126   252.0007 </r>
       <r>     5.2746     1.3379   252.0720 </r>
       <r>     5.3279    19.0059   253.0852 </r>
       <r>     5.3812    40.4376   255.2409 </r>
       <r>     5.4345    13.5656   255.9641 </r>
       <r>     5.4878     0.6687   255.9998 </r>
       <r>     5.5411     0.0043   256.0000 </r>
       <r>     5.5944     0.0000   256.0000 </r>
       <r>     5.6478     0.0000   256.0000 </r>
       <r>     5.7011     0.0000   256.0000 </r>
       <r>     5.7544     0.0000   256.0000 </r>
       <r>     5.8077     0.0000   256.0000 </r>
       <r>     5.8610     0.0000   256.0000 </r>
       <r>     5.9143     0.0000   256.0000 </r>
       <r>     5.9676     0.0000   256.0000 </r>
       <r>     6.0209     0.0000   256.0000 </r>
       <r>     6.0742     0.0000   256.0000 </r>
       <r>     6.1275     0.0000   256.0000 </r>
       <r>     6.1809     0.0000   256.0000 </r>
       <r>     6.2342     0.0000   256.0000 </r>
       <r>     6.2875     0.0000   256.0000 </r>
       <r>     6.3408     0.0000   256.0000 </r>
       <r>     6.3941     0.0001   256.0000 </r>
       <r>     6.4474     0.0600   256.0032 </r>
       <r>     6.5007     4.2768   256.2312 </r>
       <r>     6.5540    40.2177   258.3752 </r>
       <r>     6.6073    55.8935   261.3549 </r>
       <r>     6.6606    11.7591   261.9818 </r>
       <r>     6.7140     0.3406   261.9999 </r>
       <r>     6.7673     0.0012   262.0000 </r>
       <r>     6.8206     0.0000   262.0000 </r>
       <r>     6.8739     0.0136   262.0007 </r>
       <r>     6.9272     1.6651   262.0895 </r>
       <r>     6.9805    26.5023   263.5023 </r>
       <r>     7.0338    61.3549   266.7732 </r>
       <r>     7.0871    21.8840   267.9398 </r>
       <r>     7.1404     1.2791   268.0080 </r>
       <r>     7.1937     4.6997   268.2585 </r>
       <r>     7.2471    19.4165   269.2936 </r>
       <r>     7.3004    12.1314   269.9403 </r>
       <r>     7.3537     1.1125   269.9997 </r>
       <r>     7.4070     1.0537   270.0558 </r>
       <r>     7.4603    21.0564   271.1783 </r>
       <r>     7.5136    61.3663   274.4498 </r>
       <r>     7.5669    35.0397   276.3178 </r>
       <r>     7.6202    51.1781   279.0461 </r>
       <r>     7.6735    48.3813   281.6253 </r>
       <r>     7.7268    16.5183   282.5059 </r>
       <r>     7.7802    78.2513   286.6774 </r>
       <r>     7.8335   109.5472   292.5174 </r>
       <r>     7.8868    26.7795   293.9450 </r>
       <r>     7.9401     2.2927   294.0672 </r>
       <r>     7.9934    32.5503   295.8025 </r>
       <r>     8.0467   124.3136   302.4297 </r>
       <r>     8.1000    87.4149   307.0898 </r>
       <r>     8.1533    16.2090   307.9539 </r>
       <r>     8.2066     1.5724   308.0377 </r>
       <r>     8.2599    17.4719   308.9691 </r>
       <r>     8.3133    60.2553   312.1813 </r>
       <r>     8.3666    31.6839   313.8704 </r>
       <r>     8.4199     4.5932   314.1153 </r>
       <r>     8.4732    42.3515   316.3730 </r>
       <r>     8.5265   131.3160   323.3735 </r>
       <r>     8.5798    76.9228   327.4742 </r>
       <r>     8.6331     9.6161   327.9869 </r>
       <r>     8.6864     0.2451   327.9999 </r>
       <r>     8.7397     0.0010   328.0000 </r>
       <r>     8.7930     0.0000   328.0000 </r>
       <r>     8.8464     0.0000   328.0000 </r>
       <r>     8.8997     0.0000   328.0000 </r>
       <r>     8.9530     0.0000   328.0000 </r>
       <r>     9.0063     0.0000   328.0000 </r>
       <r>     9.0596     0.0000   328.0000 </r>
       <r>     9.1129     0.0000   328.0000 </r>
       <r>     9.1662     0.0000   328.0000 </r>
       <r>     9.2195     0.0000   328.0000 </r>
       <r>     9.2728     0.0000   328.0000 </r>
      </set>
     </set>
    </array>
   </total>
  </dos>
 </calculation>
 <structure name="finalpos" >
  <crystal>
   <varray name="basis" >
    <v>      10.93252578       0.00000000       0.00000000 </v>
    <v>       0.00000000      10.93252578       0.00000000 </v>
    <v>       0.00000000       0.00000000      10.93252578 </v>
   </varray>
   <i name="volume">   1306.65679237 </i>
   <varray name="rec_basis" >
    <v>       0.09147017       0.00000000       0.00000000 </v>
    <v>       0.00000000       0.09147017       0.00000000 </v>
    <v>       0.00000000       0.00000000       0.09147017 </v>
   </varray>
  </crystal>
  <varray name="positions" >
   <v>       0.44024411       0.43750000       0.43750000 </v>
   <v>       0.93750000       0.43750000       0.43750000 </v>
   <v>       0.43750000       0.93750000       0.43750000 </v>
   <v>       0.93750000       0.93750000       0.43750000 </v>
   <v>       0.43750000       0.43750000       0.93750000 </v>
   <v>       0.93750000       0.43750000       0.93750000 </v>
   <v>       0.43750000       0.93750000       0.93750000 </v>
   <v>       0.93750000       0.93750000       0.93750000 </v>
   <v>       0.43750000       0.18750000       0.18750000 </v>
   <v>       0.93750000       0.18750000       0.18750000 </v>
   <v>       0.43750000       0.68750000       0.18750000 </v>
   <v>       0.93750000       0.68750000       0.18750000 </v>
   <v>       0.43750000       0.18750000       0.68750000 </v>
   <v>       0.93750000       0.18750000       0.68750000 </v>
   <v>       0.43750000       0.68750000       0.68750000 </v>
   <v>       0.93750000       0.68750000       0.68750000 </v>
   <v>       0.18750000       0.43750000       0.18750000 </v>
   <v>       0.68750000       0.43750000       0.18750000 </v>
   <v>       0.19024411       0.93750000       0.18750000 </v>
   <v>       0.68750000       0.93750000       0.18750000 </v>
   <v>       0.18750000       0.43750000       0.68750000 </v>
   <v>       0.68750000       0.43750000       0.68750000 </v>
   <v>       0.18750000       0.93750000       0.68750000 </v>
   <v>       0.68750000       0.93750000       0.68750000 </v>
   <v>       0.18750000       0.18750000       0.43750000 </v>
   <v>       0.68750000       0.18750000       0.43750000 </v>
   <v>       0.18750000       0.68750000       0.43750000 </v>
   <v>       0.68750000       0.68750000       0.43750000 </v>
   <v>       0.18750000       0.18750000       0.93750000 </v>
   <v>       0.68750000       0.18750000       0.93750000 </v>
   <v>       0.18750000       0.68750000       0.93750000 </v>
   <v>       0.68750000       0.68750000       0.93750000 </v>
   <v>       0.06250000       0.06250000       0.06250000 </v>
   <v>       0.56250000       0.06250000       0.06250000 </v>
   <v>       0.06250000       0.56250000       0.06250000 </v>
   <v>       0.56250000       0.56250000       0.06250000 </v>
   <v>       0.06250000       0.06250000       0.56250000 </v>
   <v>       0.56250000       0.06250000       0.56250000 </v>
   <v>       0.06250000       0.56250000       0.56250000 </v>
   <v>       0.56250000       0.56250000       0.56250000 </v>
   <v>       0.06250000       0.31250000       0.31250000 </v>
   <v>       0.56250000       0.31250000       0.31250000 </v>
   <v>       0.06250000       0.81250000       0.31250000 </v>
   <v>       0.56250000       0.81250000       0.31250000 </v>
   <v>       0.06250000       0.31250000       0.81250000 </v>
   <v>       0.56250000       0.31250000       0.81250000 </v>
   <v>       0.06250000       0.81250000       0.81250000 </v>
   <v>       0.56250000       0.81250000       0.81250000 </v>
   <v>       0.31250000       0.06250000       0.31250000 </v>
   <v>       0.81250000       0.06250000       0.31250000 </v>
   <v>       0.31250000       0.56250000       0.31250000 </v>
   <v>       0.81250000       0.56250000       0.31250000 </v>
   <v>       0.31250000       0.06250000       0.81250000 </v>
   <v>       0.81250000       0.06250000       0.81250000 </v>
   <v>       0.31250000       0.56250000       0.81250000 </v>
   <v>       0.81250000       0.56250000       0.81250000 </v>
   <v>       0.31250000       0.31250000       0.06250000 </v>
   <v>       0.81250000       0.31250000       0.06250000 </v>
   <v>       0.31250000       0.81250000       0.06250000 </v>
   <v>       0.81250000       0.81250000       0.06250000 </v>
   <v>       0.31250000       0.31250000       0.56250000 </v>
   <v>       0.81250000       0.31250000       0.56250000 </v>
   <v>       0.31250000       0.81250000       0.56250000 </v>
   <v>       0.81250000       0.81250000       0.56250000 </v>
  </varray>
 </structure>
</modeling>
