
     Program PWSCF v.5.3.0 (svn rev. 11974) starts on  3Feb2016 at 13:34:11 

     This program is part of the open-source Quantum ESPRESSO suite
     for quantum simulation of materials; please cite
         "P. Giannozzi et al., J. Phys.:Condens. Matter 21 395502 (2009);
          URL http://www.quantum-espresso.org", 
     in publications or presentations arising from this work. More details at
     http://www.quantum-espresso.org/quote

     Parallel version (MPI), running on    16 processors
     R & G space division:  proc/nbgrp/npool/nimage =      16
     Reading input from Si.in

     Current dimensions of program PWSCF are:
     Max number of different atomic species (ntypx) = 10
     Max number of k-points (npk) =  40000
     Max angular momentum in pseudopotentials (lmaxx) =  3
               file Si.pbe-n-kjpaw_psl.0.1.UPF: wavefunction(s)  3S renormalized

     Subspace diagonalization in iterative solution of the eigenvalue problem:
     one sub-group per k-point group (pool) will be used
     scalapack distributed-memory algorithm (size of sub-group:  2*  2 procs)

 
     Parallelization info
     --------------------
     sticks:   dense  smooth     PW     G-vecs:    dense   smooth      PW
     Min         424     424    109                26332    26332    3467
     Max         425     425    110                26336    26336    3472
     Sum        6785    6785   1757               421349   421349   55515
 


     bravais-lattice index     =            0
     lattice parameter (alat)  =      20.6591  a.u.
     unit-cell volume          =    8817.2783 (a.u.)^3
     number of atoms/cell      =           64
     number of atomic types    =            1
     number of electrons       =       256.00
     number of Kohn-Sham states=          154
     kinetic-energy cutoff     =      50.0000  Ry
     charge density cutoff     =     200.0000  Ry
     convergence threshold     =      1.0E-09
     mixing beta               =       0.7000
     number of iterations used =            8  plain     mixing
     Exchange-correlation      =  SLA  PW   PBX  PBC ( 1  4  3  4 0 0)

     celldm(1)=  20.659106  celldm(2)=   0.000000  celldm(3)=   0.000000
     celldm(4)=   0.000000  celldm(5)=   0.000000  celldm(6)=   0.000000

     crystal axes: (cart. coord. in units of alat)
               a(1) = (   1.000000   0.000000   0.000000 )  
               a(2) = (   0.000000   1.000000   0.000000 )  
               a(3) = (   0.000000   0.000000   1.000000 )  

     reciprocal axes: (cart. coord. in units 2 pi/alat)
               b(1) = (  1.000000  0.000000  0.000000 )  
               b(2) = (  0.000000  1.000000  0.000000 )  
               b(3) = (  0.000000  0.000000  1.000000 )  


     PseudoPot. # 1 for Si read from file:
     /home/togo/espresso/pseudo/Si.pbe-n-kjpaw_psl.0.1.UPF
     MD5 check sum: b9d333a40e496bef61db012f150758bf
     Pseudo is Projector augmented-wave + core cor, Zval =  4.0
     Generated using "atomic" code by A. Dal Corso  v.5.0.2 svn rev. 9415
     Shape of augmentation charge: PSQ
     Using radial grid of 1141 points,  4 beta functions with: 
                l(1) =   0
                l(2) =   0
                l(3) =   1
                l(4) =   1
     Q(r) pseudized with 0 coefficients 


     atomic species   valence    mass     pseudopotential
        Si             4.00    28.08550     Si( 1.00)

     No symmetry found



   Cartesian axes

     site n.     atom                  positions (alat units)
         1           Si  tau(   1) = (   0.4404043   0.4375000   0.4375000  )
         2           Si  tau(   2) = (   0.9375000   0.4375000   0.4375000  )
         3           Si  tau(   3) = (   0.4375000   0.9375000   0.4375000  )
         4           Si  tau(   4) = (   0.9375000   0.9375000   0.4375000  )
         5           Si  tau(   5) = (   0.4375000   0.4375000   0.9375000  )
         6           Si  tau(   6) = (   0.9375000   0.4375000   0.9375000  )
         7           Si  tau(   7) = (   0.4375000   0.9375000   0.9375000  )
         8           Si  tau(   8) = (   0.9375000   0.9375000   0.9375000  )
         9           Si  tau(   9) = (   0.4375000   0.1875000   0.1875000  )
        10           Si  tau(  10) = (   0.9375000   0.1875000   0.1875000  )
        11           Si  tau(  11) = (   0.4375000   0.6845957   0.1875000  )
        12           Si  tau(  12) = (   0.9375000   0.6875000   0.1875000  )
        13           Si  tau(  13) = (   0.4375000   0.1875000   0.6875000  )
        14           Si  tau(  14) = (   0.9375000   0.1875000   0.6875000  )
        15           Si  tau(  15) = (   0.4375000   0.6875000   0.6875000  )
        16           Si  tau(  16) = (   0.9375000   0.6875000   0.6875000  )
        17           Si  tau(  17) = (   0.1875000   0.4375000   0.1875000  )
        18           Si  tau(  18) = (   0.6875000   0.4375000   0.1875000  )
        19           Si  tau(  19) = (   0.1875000   0.9375000   0.1875000  )
        20           Si  tau(  20) = (   0.6875000   0.9375000   0.1875000  )
        21           Si  tau(  21) = (   0.1875000   0.4375000   0.6875000  )
        22           Si  tau(  22) = (   0.6875000   0.4375000   0.6875000  )
        23           Si  tau(  23) = (   0.1875000   0.9375000   0.6875000  )
        24           Si  tau(  24) = (   0.6875000   0.9375000   0.6875000  )
        25           Si  tau(  25) = (   0.1875000   0.1875000   0.4375000  )
        26           Si  tau(  26) = (   0.6875000   0.1875000   0.4375000  )
        27           Si  tau(  27) = (   0.1875000   0.6875000   0.4375000  )
        28           Si  tau(  28) = (   0.6875000   0.6875000   0.4375000  )
        29           Si  tau(  29) = (   0.1875000   0.1875000   0.9375000  )
        30           Si  tau(  30) = (   0.6875000   0.1875000   0.9375000  )
        31           Si  tau(  31) = (   0.1875000   0.6875000   0.9375000  )
        32           Si  tau(  32) = (   0.6875000   0.6875000   0.9375000  )
        33           Si  tau(  33) = (   0.0625000   0.0625000   0.0625000  )
        34           Si  tau(  34) = (   0.5625000   0.0625000   0.0625000  )
        35           Si  tau(  35) = (   0.0625000   0.5625000   0.0625000  )
        36           Si  tau(  36) = (   0.5625000   0.5625000   0.0625000  )
        37           Si  tau(  37) = (   0.0625000   0.0625000   0.5625000  )
        38           Si  tau(  38) = (   0.5625000   0.0625000   0.5625000  )
        39           Si  tau(  39) = (   0.0625000   0.5625000   0.5625000  )
        40           Si  tau(  40) = (   0.5625000   0.5625000   0.5625000  )
        41           Si  tau(  41) = (   0.0625000   0.3125000   0.3125000  )
        42           Si  tau(  42) = (   0.5625000   0.3125000   0.3125000  )
        43           Si  tau(  43) = (   0.0625000   0.8125000   0.3125000  )
        44           Si  tau(  44) = (   0.5625000   0.8125000   0.3125000  )
        45           Si  tau(  45) = (   0.0625000   0.3125000   0.8125000  )
        46           Si  tau(  46) = (   0.5625000   0.3125000   0.8125000  )
        47           Si  tau(  47) = (   0.0625000   0.8125000   0.8125000  )
        48           Si  tau(  48) = (   0.5625000   0.8125000   0.8125000  )
        49           Si  tau(  49) = (   0.3125000   0.0625000   0.3125000  )
        50           Si  tau(  50) = (   0.8125000   0.0625000   0.3125000  )
        51           Si  tau(  51) = (   0.3125000   0.5625000   0.3125000  )
        52           Si  tau(  52) = (   0.8125000   0.5625000   0.3125000  )
        53           Si  tau(  53) = (   0.3125000   0.0625000   0.8125000  )
        54           Si  tau(  54) = (   0.8125000   0.0625000   0.8125000  )
        55           Si  tau(  55) = (   0.3125000   0.5625000   0.8125000  )
        56           Si  tau(  56) = (   0.8125000   0.5625000   0.8125000  )
        57           Si  tau(  57) = (   0.3125000   0.3125000   0.0625000  )
        58           Si  tau(  58) = (   0.8125000   0.3125000   0.0625000  )
        59           Si  tau(  59) = (   0.3125000   0.8125000   0.0625000  )
        60           Si  tau(  60) = (   0.8125000   0.8125000   0.0625000  )
        61           Si  tau(  61) = (   0.3125000   0.3125000   0.5625000  )
        62           Si  tau(  62) = (   0.8125000   0.3125000   0.5625000  )
        63           Si  tau(  63) = (   0.3125000   0.8125000   0.5625000  )
        64           Si  tau(  64) = (   0.8125000   0.8125000   0.5625000  )

     number of k points=     4  gaussian smearing, width (Ry)=  0.0100
                       cart. coord. in units 2pi/alat
        k(    1) = (   0.2500000   0.2500000   0.2500000), wk =   0.5000000
        k(    2) = (  -0.2500000  -0.2500000   0.2500000), wk =   0.5000000
        k(    3) = (  -0.2500000   0.2500000  -0.2500000), wk =   0.5000000
        k(    4) = (   0.2500000  -0.2500000  -0.2500000), wk =   0.5000000

     Dense  grid:   421349 G-vectors     FFT dimensions: (  96,  96,  96)

     Largest allocated arrays     est. size (Mb)     dimensions
        Kohn-Sham Wavefunctions         7.73 Mb     (    3289,  154)
        NL pseudopotentials            25.70 Mb     (    3289,  512)
        Each V/rho on FFT grid          0.84 Mb     (   55296)
        Each G-vector array             0.20 Mb     (   26336)
        G-vector shells                 0.01 Mb     (    1719)
     Largest temporary arrays     est. size (Mb)     dimensions
        Auxiliary wavefunctions        30.91 Mb     (    3289,  616)
        Each subspace H/S matrix        1.45 Mb     (     308,  308)
        Each <psi_i|beta_j> matrix      1.20 Mb     (     512,  154)
        Arrays for rho mixing           6.75 Mb     (   55296,    8)

     Check: negative/imaginary core charge=   -0.000001    0.000000

     Initial potential from superposition of free atoms

     starting charge  255.96421, renormalised to  256.00000
     Starting wfc are  256 randomized atomic wfcs
     Checking if some PAW data can be deallocated... 

     total cpu time spent up to now is        9.2 secs

     per-process dynamical memory:   114.8 Mb

     Self-consistent Calculation

     iteration #  1     ecut=    50.00 Ry     beta=0.70
     Davidson diagonalization with overlap
     ethr =  1.00E-02,  avg # of iterations =  3.0

     Threshold (ethr) on eigenvalues was too large:
     Diagonalizing with lowered threshold

     Davidson diagonalization with overlap
     ethr =  7.00E-04,  avg # of iterations =  1.0

     total cpu time spent up to now is       44.5 secs

     total energy              =   -2990.45692432 Ry
     Harris-Foulkes estimate   =   -2990.87682567 Ry
     estimated scf accuracy    <       1.77323992 Ry

     iteration #  2     ecut=    50.00 Ry     beta=0.70
     Davidson diagonalization with overlap
     ethr =  6.93E-04,  avg # of iterations =  1.0

     total cpu time spent up to now is       57.8 secs

     total energy              =   -2990.52358626 Ry
     Harris-Foulkes estimate   =   -2990.52748232 Ry
     estimated scf accuracy    <       0.07634037 Ry

     iteration #  3     ecut=    50.00 Ry     beta=0.70
     Davidson diagonalization with overlap
     ethr =  2.98E-05,  avg # of iterations = 11.2

     total cpu time spent up to now is       88.3 secs

     total energy              =   -2990.53049037 Ry
     Harris-Foulkes estimate   =   -2990.53138968 Ry
     estimated scf accuracy    <       0.00208499 Ry

     iteration #  4     ecut=    50.00 Ry     beta=0.70
     Davidson diagonalization with overlap
     ethr =  8.14E-07,  avg # of iterations =  6.2

     total cpu time spent up to now is      123.5 secs

     total energy              =   -2990.53016083 Ry
     Harris-Foulkes estimate   =   -2990.53295368 Ry
     estimated scf accuracy    <       0.00877606 Ry

     iteration #  5     ecut=    50.00 Ry     beta=0.70
     Davidson diagonalization with overlap
     ethr =  8.14E-07,  avg # of iterations =  5.0

     total cpu time spent up to now is      148.6 secs

     total energy              =   -2990.53146416 Ry
     Harris-Foulkes estimate   =   -2990.53160600 Ry
     estimated scf accuracy    <       0.00041480 Ry

     iteration #  6     ecut=    50.00 Ry     beta=0.70
     Davidson diagonalization with overlap
     ethr =  1.62E-07,  avg # of iterations =  2.0

     total cpu time spent up to now is      164.9 secs

     total energy              =   -2990.53153596 Ry
     Harris-Foulkes estimate   =   -2990.53155227 Ry
     estimated scf accuracy    <       0.00004695 Ry

     iteration #  7     ecut=    50.00 Ry     beta=0.70
     Davidson diagonalization with overlap
     ethr =  1.83E-08,  avg # of iterations =  3.0

     total cpu time spent up to now is      183.1 secs

     total energy              =   -2990.53154467 Ry
     Harris-Foulkes estimate   =   -2990.53154652 Ry
     estimated scf accuracy    <       0.00000424 Ry

     iteration #  8     ecut=    50.00 Ry     beta=0.70
     Davidson diagonalization with overlap
     ethr =  1.66E-09,  avg # of iterations =  3.0

     total cpu time spent up to now is      203.7 secs

     total energy              =   -2990.53154581 Ry
     Harris-Foulkes estimate   =   -2990.53154602 Ry
     estimated scf accuracy    <       0.00000050 Ry

     iteration #  9     ecut=    50.00 Ry     beta=0.70
     Davidson diagonalization with overlap
     ethr =  1.97E-10,  avg # of iterations =  3.0

     total cpu time spent up to now is      223.5 secs

     total energy              =   -2990.53154583 Ry
     Harris-Foulkes estimate   =   -2990.53154594 Ry
     estimated scf accuracy    <       0.00000019 Ry

     iteration # 10     ecut=    50.00 Ry     beta=0.70
     Davidson diagonalization with overlap
     ethr =  7.41E-11,  avg # of iterations =  3.0

     total cpu time spent up to now is      240.5 secs

     total energy              =   -2990.53154582 Ry
     Harris-Foulkes estimate   =   -2990.53154587 Ry
     estimated scf accuracy    <       0.00000007 Ry

     iteration # 11     ecut=    50.00 Ry     beta=0.70
     Davidson diagonalization with overlap
     ethr =  2.61E-11,  avg # of iterations =  2.0

     total cpu time spent up to now is      257.1 secs

     total energy              =   -2990.53154583 Ry
     Harris-Foulkes estimate   =   -2990.53154583 Ry
     estimated scf accuracy    <          2.0E-09 Ry

     iteration # 12     ecut=    50.00 Ry     beta=0.70
     Davidson diagonalization with overlap
     ethr =  7.73E-13,  avg # of iterations =  3.0

     total cpu time spent up to now is      282.3 secs

     total energy              =   -2990.53154583 Ry
     Harris-Foulkes estimate   =   -2990.53154583 Ry
     estimated scf accuracy    <          1.8E-09 Ry

     iteration # 13     ecut=    50.00 Ry     beta=0.70
     Davidson diagonalization with overlap
     ethr =  6.97E-13,  avg # of iterations =  2.2

     total cpu time spent up to now is      299.7 secs

     End of self-consistent calculation

          k = 0.2500 0.2500 0.2500 ( 52563 PWs)   bands (ev):

    -5.6250  -5.0997  -5.0956  -5.0937  -4.5998  -4.5959  -4.5944  -4.1631
    -4.0668  -4.0624  -4.0610  -3.6550  -3.6500  -3.6473  -3.6469  -3.6449
    -3.6383  -3.4590  -3.4549  -3.4506  -2.9616  -2.9578  -2.9563  -2.5931
    -2.5892  -2.5856  -2.4288  -2.4231  -2.4213  -2.4209  -2.4188  -2.4118
    -0.8871  -0.8812  -0.8789  -0.8779  -0.8754  -0.8696  -0.7838  -0.7804
    -0.7769  -0.6675  -0.6623  -0.6567  -0.5832  -0.5768  -0.5681   0.1263
     0.2035   0.2069   0.2097   0.2112   0.2144   0.2191   1.0794   1.0852
     1.0916   1.4140   1.4184   1.4225   2.0238   2.0273   2.0282   2.0302
     2.0317   2.0334   2.0856   2.0878   2.0917   2.6379   2.6399   2.6425
     2.7375   2.7402   2.7420   2.7447   2.7458   2.7483   2.7917   2.7973
     2.8010   3.1014   3.1060   3.1074   3.1079   3.1094   3.1132   3.3691
     3.3724   3.3739   3.3823   3.3862   3.3899   3.7312   3.7344   3.7376
     3.7531   3.7568   3.7601   3.8372   3.8391   3.8423   4.1056   4.1121
     4.1141   4.1149   4.1161   4.1223   4.1511   4.1531   4.1573   4.4133
     4.4674   4.4714   4.4741   4.7118   4.7139   4.7176   4.7731   4.7785
     4.7854   4.9319   4.9406   5.2398   5.2429   5.2481   5.7191   5.7290
     6.9323   6.9367   6.9396   7.3727   7.3753   7.3821   7.5987   7.8579
     7.8607   7.8669   7.9876   7.9918   7.9956   8.1471   8.1513   8.1550
     8.1655   8.1702   8.1724   8.3961   8.3990   8.4008   8.4035   8.4068
     8.4079   8.4484

          k =-0.2500-0.2500 0.2500 ( 52563 PWs)   bands (ev):

    -5.6250  -5.0989  -5.0970  -5.0931  -4.5994  -4.5973  -4.5935  -4.1631
    -4.0662  -4.0641  -4.0596  -3.6530  -3.6492  -3.6482  -3.6473  -3.6443
    -3.6404  -3.4589  -3.4549  -3.4506  -2.9627  -2.9595  -2.9536  -2.5931
    -2.5892  -2.5856  -2.4278  -2.4232  -2.4216  -2.4211  -2.4180  -2.4131
    -0.8879  -0.8813  -0.8787  -0.8783  -0.8747  -0.8691  -0.7837  -0.7806
    -0.7770  -0.6676  -0.6622  -0.6567  -0.5801  -0.5773  -0.5707   0.1262
     0.2028   0.2068   0.2092   0.2104   0.2154   0.2201   1.0804   1.0847
     1.0909   1.4141   1.4181   1.4229   2.0240   2.0277   2.0283   2.0295
     2.0315   2.0335   2.0853   2.0878   2.0918   2.6377   2.6403   2.6423
     2.7378   2.7394   2.7418   2.7444   2.7464   2.7485   2.7923   2.7964
     2.8013   3.1031   3.1045   3.1068   3.1071   3.1101   3.1138   3.3695
     3.3712   3.3746   3.3821   3.3861   3.3903   3.7320   3.7349   3.7369
     3.7525   3.7559   3.7612   3.8363   3.8389   3.8433   4.1072   4.1119
     4.1134   4.1144   4.1161   4.1224   4.1499   4.1530   4.1582   4.4129
     4.4676   4.4708   4.4747   4.7107   4.7139   4.7187   4.7746   4.7783
     4.7841   4.9319   4.9406   5.2385   5.2429   5.2494   5.7191   5.7290
     6.9330   6.9356   6.9400   7.3715   7.3765   7.3821   7.5987   7.8570
     7.8619   7.8667   7.9878   7.9918   7.9953   8.1475   8.1518   8.1548
     8.1663   8.1679   8.1734   8.3967   8.3993   8.4017   8.4025   8.4049
     8.4086   8.4486

          k =-0.2500 0.2500-0.2500 ( 52563 PWs)   bands (ev):

    -5.6251  -5.0993  -5.0960  -5.0933  -4.5998  -4.5965  -4.5939  -4.1641
    -4.0673  -4.0634  -4.0606  -3.6530  -3.6500  -3.6484  -3.6474  -3.6432
    -3.6374  -3.4576  -3.4553  -3.4494  -2.9655  -2.9595  -2.9564  -2.5926
    -2.5909  -2.5832  -2.4257  -2.4243  -2.4227  -2.4214  -2.4161  -2.4126
    -0.8850  -0.8822  -0.8806  -0.8785  -0.8752  -0.8714  -0.7855  -0.7830
    -0.7754  -0.6685  -0.6630  -0.6601  -0.5776  -0.5742  -0.5635   0.1301
     0.2014   0.2057   0.2078   0.2105   0.2122   0.2181   1.0828   1.0856
     1.0950   1.4151   1.4178   1.4219   2.0251   2.0264   2.0287   2.0298
     2.0308   2.0329   2.0843   2.0872   2.0902   2.6399   2.6413   2.6449
     2.7362   2.7383   2.7410   2.7429   2.7446   2.7476   2.7911   2.7946
     2.7974   3.1024   3.1066   3.1071   3.1080   3.1094   3.1129   3.3691
     3.3698   3.3724   3.3821   3.3852   3.3879   3.7339   3.7367   3.7390
     3.7562   3.7585   3.7644   3.8357   3.8389   3.8406   4.1122   4.1137
     4.1141   4.1159   4.1198   4.1259   4.1493   4.1527   4.1554   4.4173
     4.4669   4.4678   4.4711   4.7094   4.7133   4.7148   4.7790   4.7808
     4.7917   4.9324   4.9376   5.2368   5.2416   5.2440   5.7188   5.7244
     6.9317   6.9339   6.9380   7.3726   7.3751   7.3802   7.5972   7.8571
     7.8593   7.8641   7.9883   7.9945   7.9964   8.1467   8.1523   8.1538
     8.1660   8.1678   8.1713   8.3981   8.4012   8.4021   8.4048   8.4078
     8.4107   8.4460

          k = 0.2500-0.2500-0.2500 ( 52563 PWs)   bands (ev):

    -5.6250  -5.0994  -5.0966  -5.0933  -4.5994  -4.5969  -4.5938  -4.1621
    -4.0658  -4.0634  -4.0597  -3.6555  -3.6520  -3.6469  -3.6449  -3.6440
    -3.6420  -3.4601  -3.4543  -3.4520  -2.9593  -2.9571  -2.9537  -2.5956
    -2.5876  -2.5857  -2.4297  -2.4242  -2.4211  -2.4187  -2.4171  -2.4156
    -0.8885  -0.8807  -0.8780  -0.8760  -0.8729  -0.8712  -0.7853  -0.7778
    -0.7753  -0.6642  -0.6615  -0.6555  -0.5860  -0.5796  -0.5755   0.1226
     0.2029   0.2085   0.2114   0.2134   0.2170   0.2203   1.0782   1.0829
     1.0877   1.4166   1.4171   1.4214   2.0248   2.0270   2.0287   2.0296
     2.0308   2.0345   2.0868   2.0900   2.0914   2.6354   2.6389   2.6402
     2.7402   2.7410   2.7426   2.7454   2.7467   2.7507   2.7943   2.7999
     2.8023   3.1023   3.1043   3.1079   3.1089   3.1096   3.1115   3.3712
     3.3733   3.3742   3.3858   3.3864   3.3903   3.7299   3.7322   3.7356
     3.7490   3.7546   3.7566   3.8380   3.8407   3.8433   4.1029   4.1080
     4.1120   4.1147   4.1155   4.1159   4.1521   4.1549   4.1582   4.4088
     4.4711   4.4740   4.4749   4.7133   4.7163   4.7199   4.7704   4.7738
     4.7782   4.9350   4.9400   5.2423   5.2457   5.2511   5.7235   5.7294
     6.9346   6.9385   6.9406   7.3731   7.3756   7.3839   7.6002   7.8595
     7.8624   7.8684   7.9870   7.9889   7.9949   8.1491   8.1504   8.1551
     8.1669   8.1707   8.1730   8.3950   8.3968   8.3988   8.4022   8.4045
     8.4060   8.4505

     the Fermi energy is     6.3277 ev

!    total energy              =   -2990.53154584 Ry
     Harris-Foulkes estimate   =   -2990.53154583 Ry
     estimated scf accuracy    <          4.5E-10 Ry

     total all-electron energy =    -37124.667099 Ry

     The total energy is the sum of the following terms:

     one-electron contribution =     178.60656119 Ry
     hartree contribution      =      35.70143183 Ry
     xc contribution           =    -391.44199766 Ry
     ewald contribution        =    -534.00623545 Ry
     one-center paw contrib.   =   -2279.39130574 Ry
     smearing contrib. (-TS)   =       0.00000000 Ry

     convergence has been achieved in  13 iterations

     Forces acting on atoms (Ry/au):

     atom    1 type  1   force =    -0.01599872   -0.00023510    0.00023486
     atom    2 type  1   force =     0.00001314   -0.00004335   -0.00007617
     atom    3 type  1   force =    -0.00005507   -0.00023089   -0.00022739
     atom    4 type  1   force =    -0.00001661   -0.00004222    0.00007720
     atom    5 type  1   force =     0.00016812   -0.00023803   -0.00023259
     atom    6 type  1   force =     0.00000244   -0.00004351    0.00007665
     atom    7 type  1   force =    -0.00036552   -0.00023138    0.00022839
     atom    8 type  1   force =     0.00003446   -0.00004214   -0.00007718
     atom    9 type  1   force =    -0.00052828    0.00009206    0.00011412
     atom   10 type  1   force =    -0.00000004    0.00001733    0.00000884
     atom   11 type  1   force =    -0.00052391    0.01600303   -0.00010886
     atom   12 type  1   force =     0.00000069   -0.00004615   -0.00001041
     atom   13 type  1   force =    -0.00052370   -0.00010243    0.00010910
     atom   14 type  1   force =     0.00000052   -0.00003319    0.00001002
     atom   15 type  1   force =    -0.00052770   -0.00016898   -0.00011389
     atom   16 type  1   force =    -0.00000062    0.00046489   -0.00000899
     atom   17 type  1   force =     0.00000119   -0.00034857    0.00034446
     atom   18 type  1   force =     0.00047110   -0.00035238   -0.00034624
     atom   19 type  1   force =     0.00027049   -0.00024048    0.00003144
     atom   20 type  1   force =    -0.00018563   -0.00024109   -0.00003438
     atom   21 type  1   force =     0.00030772    0.00006681   -0.00021795
     atom   22 type  1   force =     0.00016226    0.00007107    0.00022344
     atom   23 type  1   force =    -0.00003413   -0.00003261    0.00008710
     atom   24 type  1   force =     0.00011953   -0.00003277   -0.00008597
     atom   25 type  1   force =     0.00024107    0.00022874   -0.00011922
     atom   26 type  1   force =     0.00024747   -0.00023351   -0.00010455
     atom   27 type  1   force =     0.00034609    0.00029926   -0.00000370
     atom   28 type  1   force =     0.00034728    0.00075562    0.00022404
     atom   29 type  1   force =     0.00003278   -0.00007728   -0.00001864
     atom   30 type  1   force =     0.00003386    0.00007761   -0.00000060
     atom   31 type  1   force =    -0.00006706    0.00060097   -0.00010001
     atom   32 type  1   force =    -0.00007093    0.00045127    0.00012374
     atom   33 type  1   force =     0.00000391    0.00000615    0.00000493
     atom   34 type  1   force =     0.00029341    0.00004090   -0.00001006
     atom   35 type  1   force =     0.00006520    0.00008681   -0.00002542
     atom   36 type  1   force =     0.00264480   -0.00387853   -0.00266737
     atom   37 type  1   force =     0.00005765    0.00004760   -0.00000422
     atom   38 type  1   force =    -0.00003393    0.00001295    0.00002507
     atom   39 type  1   force =     0.00001515   -0.00021886    0.00001043
     atom   40 type  1   force =     0.00397895    0.00276435    0.00266641
     atom   41 type  1   force =    -0.00003923   -0.00006668   -0.00006780
     atom   42 type  1   force =     0.00389075   -0.00269255   -0.00274264
     atom   43 type  1   force =    -0.00001040    0.00003351   -0.00007926
     atom   44 type  1   force =    -0.00254275   -0.00385116   -0.00253149
     atom   45 type  1   force =    -0.00000504   -0.00000513   -0.00005566
     atom   46 type  1   force =    -0.00008879   -0.00007782   -0.00006532
     atom   47 type  1   force =    -0.00004905   -0.00028491   -0.00005854
     atom   48 type  1   force =     0.00020411    0.00003007   -0.00006520
     atom   49 type  1   force =    -0.00009656   -0.00002405    0.00008926
     atom   50 type  1   force =     0.00000296   -0.00005234    0.00005614
     atom   51 type  1   force =     0.00110341   -0.00641572    0.00518124
     atom   52 type  1   force =    -0.00005167    0.00002156    0.00008747
     atom   53 type  1   force =     0.00022603   -0.00005375    0.00005287
     atom   54 type  1   force =    -0.00005256   -0.00000817    0.00006196
     atom   55 type  1   force =    -0.00010868    0.00000857    0.00007687
     atom   56 type  1   force =     0.00000046   -0.00028575    0.00005496
     atom   57 type  1   force =    -0.00002107    0.00006422    0.00000082
     atom   58 type  1   force =     0.00005510    0.00000173    0.00000173
     atom   59 type  1   force =     0.00273338   -0.00378534    0.00245200
     atom   60 type  1   force =     0.00001556    0.00008856    0.00002040
     atom   61 type  1   force =     0.00383959    0.00245181   -0.00245455
     atom   62 type  1   force =     0.00001853    0.00005965   -0.00000650
     atom   63 type  1   force =    -0.00000628    0.00009590   -0.00001405
     atom   64 type  1   force =     0.00005478   -0.00022620   -0.00000110

     Total force =     0.027548     Total SCF correction =     0.000042

     Writing output data file pwscf.save
 
     init_run     :      8.80s CPU      8.94s WALL (       1 calls)
     electrons    :    285.34s CPU    290.74s WALL (       1 calls)
     forces       :      4.12s CPU      4.23s WALL (       1 calls)

     Called by init_run:
     wfcinit      :      8.22s CPU      8.29s WALL (       1 calls)
     potinit      :      0.23s CPU      0.25s WALL (       1 calls)

     Called by electrons:
     c_bands      :    256.07s CPU    261.07s WALL (      14 calls)
     sum_band     :     25.16s CPU     25.33s WALL (      14 calls)
     v_of_rho     :      0.67s CPU      0.68s WALL (      14 calls)
     newd         :      0.98s CPU      1.01s WALL (      14 calls)
     PAW_pot      :      2.31s CPU      2.31s WALL (      14 calls)
     mix_rho      :      0.32s CPU      0.32s WALL (      14 calls)

     Called by c_bands:
     init_us_2    :      2.64s CPU      2.66s WALL (     120 calls)
     cegterg      :    250.78s CPU    254.64s WALL (      56 calls)

     Called by sum_band:
     sum_band:bec :      0.05s CPU      0.05s WALL (      56 calls)
     addusdens    :      1.00s CPU      1.10s WALL (      14 calls)

     Called by *egterg:
     h_psi        :    118.58s CPU    118.93s WALL (     255 calls)
     s_psi        :     30.36s CPU     30.41s WALL (     255 calls)
     g_psi        :      1.06s CPU      1.07s WALL (     195 calls)
     cdiaghg      :     37.84s CPU     37.89s WALL (     247 calls)

     Called by h_psi:
     add_vuspsi   :     30.61s CPU     30.67s WALL (     255 calls)

     General routines
     calbec       :     46.86s CPU     46.95s WALL (     327 calls)
     fft          :      0.40s CPU      0.41s WALL (     195 calls)
     fftw         :     59.44s CPU     59.68s WALL (   57162 calls)
     davcio       :      0.00s CPU      0.04s WALL (       4 calls)
 
     Parallel routines
     fft_scatter  :     15.61s CPU     15.43s WALL (   57357 calls)
 
     PWSCF        :  4m58.59s CPU     5m26.41s WALL

 
   This run was terminated on:  13:39:37   3Feb2016            

=------------------------------------------------------------------------------=
   JOB DONE.
=------------------------------------------------------------------------------=
