<?xml version="1.0" encoding="ISO-8859-1"?>
<modeling>
 <generator>
  <i name="program" type="string">vasp </i>
  <i name="version" type="string">5.4.1  </i>
  <i name="subversion" type="string">05Feb16 (build Mar 26 2016 11:58:25) complex                          parallel </i>
  <i name="platform" type="string">IFC91_ompi </i>
  <i name="date" type="string">2017 03 12 </i>
  <i name="time" type="string">12:13:56 </i>
 </generator>
 <incar>
  <i type="string" name="PREC">accurate</i>
  <i type="int" name="IALGO">    38</i>
  <i type="logical" name="ADDGRID"> T  </i>
  <i type="int" name="NELMIN">     5</i>
  <i type="int" name="IBRION">    -1</i>
  <i name="EDIFF">      0.00000001</i>
  <i name="ENCUT">    300.00000000</i>
  <i type="logical" name="LREAL"> F  </i>
  <i type="int" name="ISMEAR">     0</i>
  <i name="SIGMA">      0.05000000</i>
  <i type="logical" name="LWAVE"> F  </i>
  <i type="logical" name="LCHARG"> F  </i>
  <v type="int" name="KPOINT_BSE">    -1     0     0     0</v>
 </incar>
 <kpoints>
  <generation param="Monkhorst-Pack">
   <v type="int" name="divisions">       2        2        2 </v>
   <v name="usershift">      0.00000000       0.00000000       0.00000000 </v>
   <v name="genvec1">      0.50000000       0.00000000       0.00000000 </v>
   <v name="genvec2">      0.00000000       0.50000000       0.00000000 </v>
   <v name="genvec3">      0.00000000       0.00000000       0.50000000 </v>
   <v name="shift">      0.50000000       0.50000000       0.50000000 </v>
  </generation>
  <varray name="kpointlist" >
   <v>       0.25000000       0.25000000       0.25000000 </v>
   <v>      -0.25000000       0.25000000       0.25000000 </v>
   <v>       0.25000000      -0.25000000       0.25000000 </v>
   <v>      -0.25000000      -0.25000000       0.25000000 </v>
  </varray>
  <varray name="weights" >
   <v>       0.25000000 </v>
   <v>       0.25000000 </v>
   <v>       0.25000000 </v>
   <v>       0.25000000 </v>
  </varray>
 </kpoints>
 <parameters>
  <separator name="general" >
   <i type="string" name="SYSTEM">unknown system</i>
   <i type="logical" name="LCOMPAT"> F  </i>
  </separator>
  <separator name="electronic" >
   <i type="string" name="PREC">accura</i>
   <i name="ENMAX">    300.00000000</i>
   <i name="ENAUG">    322.06900000</i>
   <i name="EDIFF">      0.00000001</i>
   <i type="int" name="IALGO">    38</i>
   <i type="int" name="IWAVPR">    10</i>
   <i type="int" name="NBANDS">   164</i>
   <i name="NELECT">    256.00000000</i>
   <i type="int" name="TURBO">     0</i>
   <i type="int" name="IRESTART">     0</i>
   <i type="int" name="NREBOOT">     0</i>
   <i type="int" name="NMIN">     0</i>
   <i name="EREF">      0.00000000</i>
   <separator name="electronic smearing" >
    <i type="int" name="ISMEAR">     0</i>
    <i name="SIGMA">      0.05000000</i>
    <i name="KSPACING">      0.50000000</i>
    <i type="logical" name="KGAMMA"> T  </i>
   </separator>
   <separator name="electronic projectors" >
    <i type="logical" name="LREAL"> F  </i>
    <v name="ROPT">      0.00000000</v>
    <i type="int" name="LMAXPAW">  -100</i>
    <i type="int" name="LMAXMIX">     2</i>
    <i type="logical" name="NLSPLINE"> F  </i>
   </separator>
   <separator name="electronic startup" >
    <i type="int" name="ISTART">     0</i>
    <i type="int" name="ICHARG">     2</i>
    <i type="int" name="INIWAV">     1</i>
   </separator>
   <separator name="electronic spin" >
    <i type="int" name="ISPIN">     1</i>
    <i type="logical" name="LNONCOLLINEAR"> F  </i>
    <v name="MAGMOM">      1.00000000      1.00000000      1.00000000      1.00000000      1.00000000      1.00000000      1.00000000      1.00000000      1.00000000      1.00000000      1.00000000      1.00000000      1.00000000      1.00000000      1.00000000      1.00000000      1.00000000      1.00000000      1.00000000      1.00000000
      1.00000000      1.00000000      1.00000000      1.00000000      1.00000000      1.00000000      1.00000000      1.00000000      1.00000000      1.00000000      1.00000000      1.00000000      1.00000000      1.00000000      1.00000000      1.00000000      1.00000000      1.00000000      1.00000000      1.00000000
      1.00000000      1.00000000      1.00000000      1.00000000      1.00000000      1.00000000      1.00000000      1.00000000      1.00000000      1.00000000      1.00000000      1.00000000      1.00000000      1.00000000      1.00000000      1.00000000      1.00000000      1.00000000      1.00000000      1.00000000
      1.00000000      1.00000000      1.00000000      1.00000000</v>
    <i name="NUPDOWN">     -1.00000000</i>
    <i type="logical" name="LSORBIT"> F  </i>
    <v name="SAXIS">      0.00000000      0.00000000      1.00000000</v>
    <i type="logical" name="LSPIRAL"> F  </i>
    <v name="QSPIRAL">      0.00000000      0.00000000      0.00000000</v>
    <i type="logical" name="LZEROZ"> F  </i>
   </separator>
   <separator name="electronic exchange-correlation" >
    <i type="logical" name="LASPH"> F  </i>
    <i type="logical" name="LMETAGGA"> F  </i>
   </separator>
   <separator name="electronic convergence" >
    <i type="int" name="NELM">    60</i>
    <i type="int" name="NELMDL">    -5</i>
    <i type="int" name="NELMIN">     5</i>
    <i name="ENINI">    300.00000000</i>
    <separator name="electronic convergence detail" >
     <i type="logical" name="LDIAG"> T  </i>
     <i type="logical" name="LSUBROT"> F  </i>
     <i name="WEIMIN">      0.00000000</i>
     <i name="EBREAK">      0.00000000</i>
     <i name="DEPER">      0.30000000</i>
     <i type="int" name="NRMM">     4</i>
     <i name="TIME">      0.40000000</i>
    </separator>
   </separator>
   <separator name="electronic mixer" >
    <i name="AMIX">      0.40000000</i>
    <i name="BMIX">      1.00000000</i>
    <i name="AMIN">      0.10000000</i>
    <i name="AMIX_MAG">      1.60000000</i>
    <i name="BMIX_MAG">      1.00000000</i>
    <separator name="electronic mixer details" >
     <i type="int" name="IMIX">     4</i>
     <i type="logical" name="MIXFIRST"> F  </i>
     <i type="int" name="MAXMIX">   -45</i>
     <i name="WC">    100.00000000</i>
     <i type="int" name="INIMIX">     1</i>
     <i type="int" name="MIXPRE">     1</i>
     <i type="int" name="MREMOVE">     5</i>
    </separator>
   </separator>
   <separator name="electronic dipolcorrection" >
    <i type="logical" name="LDIPOL"> F  </i>
    <i type="logical" name="LMONO"> F  </i>
    <i type="int" name="IDIPOL">     0</i>
    <i name="EPSILON">      1.00000000</i>
    <v name="DIPOL">   -100.00000000   -100.00000000   -100.00000000</v>
    <i name="EFIELD">      0.00000000</i>
   </separator>
  </separator>
  <separator name="grids" >
   <i type="int" name="NGX">    64</i>
   <i type="int" name="NGY">    64</i>
   <i type="int" name="NGZ">    64</i>
   <i type="int" name="NGXF">   128</i>
   <i type="int" name="NGYF">   128</i>
   <i type="int" name="NGZF">   128</i>
   <i type="logical" name="ADDGRID"> T  </i>
  </separator>
  <separator name="ionic" >
   <i type="int" name="NSW">     0</i>
   <i type="int" name="IBRION">    -1</i>
   <i type="int" name="ISIF">     2</i>
   <i name="PSTRESS">      0.00000000</i>
   <i name="EDIFFG">      0.00000010</i>
   <i type="int" name="NFREE">     0</i>
   <i name="POTIM">      0.50000000</i>
   <i name="SMASS">     -3.00000000</i>
   <i name="SCALEE">      1.00000000</i>
  </separator>
  <separator name="ionic md" >
   <i name="TEBEG">      0.00010000</i>
   <i name="TEEND">      0.00010000</i>
   <i type="int" name="NBLOCK">     1</i>
   <i type="int" name="KBLOCK">     1</i>
   <i type="int" name="NPACO">   256</i>
   <i name="APACO">     16.00000000</i>
  </separator>
  <separator name="symmetry" >
   <i type="int" name="ISYM">     2</i>
   <i name="SYMPREC">      0.00001000</i>
  </separator>
  <separator name="dos" >
   <i type="logical" name="LORBIT"> F  </i>
   <v name="RWIGS">     -1.00000000</v>
   <i type="int" name="NEDOS">   301</i>
   <i name="EMIN">     10.00000000</i>
   <i name="EMAX">    -10.00000000</i>
   <i name="EFERMI">      0.00000000</i>
  </separator>
  <separator name="writing" >
   <i type="int" name="NWRITE">     2</i>
   <i type="logical" name="LWAVE"> F  </i>
   <i type="logical" name="LCHARG"> F  </i>
   <i type="logical" name="LPARD"> F  </i>
   <i type="logical" name="LVTOT"> F  </i>
   <i type="logical" name="LVHAR"> F  </i>
   <i type="logical" name="LELF"> F  </i>
   <i type="logical" name="LOPTICS"> F  </i>
   <v name="STM">      0.00000000      0.00000000      0.00000000      0.00000000      0.00000000      0.00000000      0.00000000</v>
  </separator>
  <separator name="performance" >
   <i type="int" name="NPAR">     4</i>
   <i type="int" name="NSIM">     4</i>
   <i type="int" name="NBLK">    -1</i>
   <i type="logical" name="LPLANE"> T  </i>
   <i type="logical" name="LSCALAPACK"> T  </i>
   <i type="logical" name="LSCAAWARE"> F  </i>
   <i type="logical" name="LSCALU"> F  </i>
   <i type="logical" name="LASYNC"> F  </i>
   <i type="logical" name="LORBITALREAL"> F  </i>
  </separator>
  <separator name="miscellaneous" >
   <i type="int" name="IDIOT">     3</i>
   <i type="logical" name="LMUSIC"> F  </i>
   <v name="POMASS">     28.08500000</v>
   <v name="DARWINR">      0.00000000</v>
   <v name="DARWINV">      1.00000000</v>
   <i type="logical" name="LCORR"> T  </i>
  </separator>
  <i type="logical" name="GGA_COMPAT"> T  </i>
  <i type="logical" name="LBERRY"> F  </i>
  <i type="int" name="ICORELEVEL">     0</i>
  <i type="logical" name="LDAU"> F  </i>
  <i type="int" name="I_CONSTRAINED_M">     0</i>
  <separator name="electronic exchange-correlation" >
   <i type="string" name="GGA">--</i>
   <i type="int" name="VOSKOWN">     0</i>
   <i type="logical" name="LHFCALC"> F  </i>
   <i type="string" name="PRECFOCK"></i>
   <i type="logical" name="LSYMGRAD"> F  </i>
   <i type="logical" name="LHFONE"> F  </i>
   <i type="logical" name="LRHFCALC"> F  </i>
   <i type="logical" name="LTHOMAS"> F  </i>
   <i type="logical" name="LMODELHF"> F  </i>
   <i name="ENCUT4O">     -1.00000000</i>
   <i type="int" name="EXXOEP">     0</i>
   <i type="int" name="FOURORBIT">     0</i>
   <i name="AEXX">      0.00000000</i>
   <i name="HFALPHA">      0.00000000</i>
   <i name="MCALPHA">      0.00000000</i>
   <i name="ALDAX">      1.00000000</i>
   <i name="AGGAX">      1.00000000</i>
   <i name="ALDAC">      1.00000000</i>
   <i name="AGGAC">      1.00000000</i>
   <i type="int" name="NKREDX">     1</i>
   <i type="int" name="NKREDY">     1</i>
   <i type="int" name="NKREDZ">     1</i>
   <i type="logical" name="SHIFTRED"> F  </i>
   <i type="logical" name="ODDONLY"> F  </i>
   <i type="logical" name="EVENONLY"> F  </i>
   <i type="int" name="LMAXFOCK">     0</i>
   <i type="int" name="NMAXFOCKAE">     0</i>
   <i type="logical" name="LFOCKAEDFT"> F  </i>
   <i name="HFSCREEN">      0.00000000</i>
   <i name="HFSCREENC">      0.00000000</i>
   <i type="int" name="NBANDSGWLOW">     0</i>
  </separator>
  <separator name="vdW DFT" >
   <i type="logical" name="LUSE_VDW"> F  </i>
   <i name="Zab_VDW">     -0.84910000</i>
   <i name="PARAM1">      0.12340000</i>
   <i name="PARAM2">      1.00000000</i>
   <i name="PARAM3">      0.00000000</i>
  </separator>
  <separator name="model GW" >
   <i type="int" name="MODEL_GW">     0</i>
   <i name="MODEL_EPS0">     12.24990743</i>
   <i name="MODEL_ALPHA">      1.00000000</i>
  </separator>
  <separator name="linear response parameters" >
   <i type="logical" name="LEPSILON"> F  </i>
   <i type="logical" name="LRPA"> F  </i>
   <i type="logical" name="LNABLA"> F  </i>
   <i type="logical" name="LVEL"> F  </i>
   <i type="int" name="KINTER">     0</i>
   <i name="CSHIFT">      0.10000000</i>
   <i name="OMEGAMAX">     -1.00000000</i>
   <i name="DEG_THRESHOLD">      0.00200000</i>
  </separator>
  <separator name="orbital magnetization" >
   <i type="logical" name="NUCIND"> F  </i>
   <v name="MAGPOS">      0.00000000      0.00000000      0.00000000</v>
   <i type="logical" name="LNICSALL"> T  </i>
   <i type="logical" name="ORBITALMAG"> F  </i>
   <i type="logical" name="LMAGBLOCH"> F  </i>
   <i type="logical" name="LCHIMAG"> F  </i>
   <i type="logical" name="LGAUGE"> T  </i>
   <i type="int" name="MAGATOM">     0</i>
   <v name="MAGDIPOL">      0.00000000      0.00000000      0.00000000</v>
   <v name="AVECCONST">      0.00000000      0.00000000      0.00000000</v>
  </separator>
  <separator name="response functions" >
   <i type="logical" name="LADDER"> F  </i>
   <i type="logical" name="LFXC"> F  </i>
   <i type="logical" name="LHARTREE"> T  </i>
   <i type="int" name="IBSE">     0</i>
   <v type="int" name="KPOINT">    -1     0     0     0</v>
   <i type="logical" name="LTCTE"> F  </i>
   <i type="logical" name="LTETE"> F  </i>
   <i type="logical" name="LTRIPLET"> F  </i>
   <i type="logical" name="LFXCEPS"> F  </i>
   <i type="logical" name="LFXHEG"> F  </i>
   <i type="int" name="NATURALO">     0</i>
   <i type="logical" name="L2ORDER"> F  </i>
   <i type="logical" name="LUSEW"> F  </i>
   <i name="ENCUTGW">     -2.00000000</i>
   <i name="ENCUTGWSOFT">     -2.00000000</i>
   <i name="ENCUTLF">     -1.00000000</i>
   <i type="int" name="LMAXMP2">    -1</i>
   <i name="SCISSOR">      0.00000000</i>
   <i type="int" name="NOMEGA">     0</i>
   <i type="int" name="NOMEGAR">     0</i>
   <i type="int" name="NBANDSGW">    -1</i>
   <i type="int" name="NBANDSO">    -1</i>
   <i type="int" name="NBANDSV">    -1</i>
   <i type="int" name="NELM">     1</i>
   <i type="int" name="NELMHF">     1</i>
   <i type="int" name="DIM">     3</i>
   <i type="int" name="ANTIRES">     0</i>
   <i name="OMEGAMAX">    -30.00000000</i>
   <i name="OMEGAMIN">    -30.00000000</i>
   <i name="OMEGATL">   -200.00000000</i>
   <i type="int" name="OMEGAGRID">     0</i>
   <i name="CSHIFT">     -0.10000000</i>
   <i type="logical" name="SELFENERGY"> F  </i>
   <i type="logical" name="LSPECTRAL"> F  </i>
   <i type="logical" name="LSPECTRALGW"> F  </i>
   <i type="logical" name="LSINGLES"> F  </i>
   <i type="logical" name="LFERMIGW"> F  </i>
   <i type="logical" name="ODDONLYGW"> F  </i>
   <i type="logical" name="EVENONLYGW"> F  </i>
   <i type="int" name="NKREDLFX">     1</i>
   <i type="int" name="NKREDLFY">     1</i>
   <i type="int" name="NKREDLFZ">     1</i>
   <i type="int" name="MAXMEM">  1800</i>
   <i type="int" name="TELESCOPE">     0</i>
   <i type="int" name="TAUPAR">     1</i>
   <i type="int" name="OMEGAPAR">    -1</i>
   <i name="LAMBDA">      1.00000000</i>
  </separator>
  <separator name="External order field" >
   <i name="OFIELD_KAPPA">      0.00000000</i>
   <v name="OFIELD_K">      0.00000000      0.00000000      0.00000000</v>
   <i name="OFIELD_Q6_NEAR">      0.00000000</i>
   <i name="OFIELD_Q6_FAR">      0.00000000</i>
   <i name="OFIELD_A">      0.00000000</i>
  </separator>
 </parameters>
 <atominfo>
  <atoms>      64 </atoms>
  <types>       1 </types>
  <array name="atoms" >
   <dimension dim="1">ion</dimension>
   <field type="string">element</field>
   <field type="int">atomtype</field>
   <set>
    <rc><c>Si</c><c>   1</c></rc>
    <rc><c>Si</c><c>   1</c></rc>
    <rc><c>Si</c><c>   1</c></rc>
    <rc><c>Si</c><c>   1</c></rc>
    <rc><c>Si</c><c>   1</c></rc>
    <rc><c>Si</c><c>   1</c></rc>
    <rc><c>Si</c><c>   1</c></rc>
    <rc><c>Si</c><c>   1</c></rc>
    <rc><c>Si</c><c>   1</c></rc>
    <rc><c>Si</c><c>   1</c></rc>
    <rc><c>Si</c><c>   1</c></rc>
    <rc><c>Si</c><c>   1</c></rc>
    <rc><c>Si</c><c>   1</c></rc>
    <rc><c>Si</c><c>   1</c></rc>
    <rc><c>Si</c><c>   1</c></rc>
    <rc><c>Si</c><c>   1</c></rc>
    <rc><c>Si</c><c>   1</c></rc>
    <rc><c>Si</c><c>   1</c></rc>
    <rc><c>Si</c><c>   1</c></rc>
    <rc><c>Si</c><c>   1</c></rc>
    <rc><c>Si</c><c>   1</c></rc>
    <rc><c>Si</c><c>   1</c></rc>
    <rc><c>Si</c><c>   1</c></rc>
    <rc><c>Si</c><c>   1</c></rc>
    <rc><c>Si</c><c>   1</c></rc>
    <rc><c>Si</c><c>   1</c></rc>
    <rc><c>Si</c><c>   1</c></rc>
    <rc><c>Si</c><c>   1</c></rc>
    <rc><c>Si</c><c>   1</c></rc>
    <rc><c>Si</c><c>   1</c></rc>
    <rc><c>Si</c><c>   1</c></rc>
    <rc><c>Si</c><c>   1</c></rc>
    <rc><c>Si</c><c>   1</c></rc>
    <rc><c>Si</c><c>   1</c></rc>
    <rc><c>Si</c><c>   1</c></rc>
    <rc><c>Si</c><c>   1</c></rc>
    <rc><c>Si</c><c>   1</c></rc>
    <rc><c>Si</c><c>   1</c></rc>
    <rc><c>Si</c><c>   1</c></rc>
    <rc><c>Si</c><c>   1</c></rc>
    <rc><c>Si</c><c>   1</c></rc>
    <rc><c>Si</c><c>   1</c></rc>
    <rc><c>Si</c><c>   1</c></rc>
    <rc><c>Si</c><c>   1</c></rc>
    <rc><c>Si</c><c>   1</c></rc>
    <rc><c>Si</c><c>   1</c></rc>
    <rc><c>Si</c><c>   1</c></rc>
    <rc><c>Si</c><c>   1</c></rc>
    <rc><c>Si</c><c>   1</c></rc>
    <rc><c>Si</c><c>   1</c></rc>
    <rc><c>Si</c><c>   1</c></rc>
    <rc><c>Si</c><c>   1</c></rc>
    <rc><c>Si</c><c>   1</c></rc>
    <rc><c>Si</c><c>   1</c></rc>
    <rc><c>Si</c><c>   1</c></rc>
    <rc><c>Si</c><c>   1</c></rc>
    <rc><c>Si</c><c>   1</c></rc>
    <rc><c>Si</c><c>   1</c></rc>
    <rc><c>Si</c><c>   1</c></rc>
    <rc><c>Si</c><c>   1</c></rc>
    <rc><c>Si</c><c>   1</c></rc>
    <rc><c>Si</c><c>   1</c></rc>
    <rc><c>Si</c><c>   1</c></rc>
    <rc><c>Si</c><c>   1</c></rc>
   </set>
  </array>
  <array name="atomtypes" >
   <dimension dim="1">type</dimension>
   <field type="int">atomspertype</field>
   <field type="string">element</field>
   <field>mass</field>
   <field>valence</field>
   <field type="string">pseudopotential</field>
   <set>
    <rc><c>  64</c><c>Si</c><c>     28.08500000</c><c>      4.00000000</c><c>  PAW_PBE Si 05Jan2001                  </c></rc>
   </set>
  </array>
 </atominfo>
 <structure name="initialpos" >
  <crystal>
   <varray name="basis" >
    <v>      10.93252578       0.00000000       0.00000000 </v>
    <v>       0.00000000      10.93252578       0.00000000 </v>
    <v>       0.00000000       0.00000000      10.93252578 </v>
   </varray>
   <i name="volume">   1306.65679237 </i>
   <varray name="rec_basis" >
    <v>       0.09147017       0.00000000       0.00000000 </v>
    <v>       0.00000000       0.09147017       0.00000000 </v>
    <v>       0.00000000       0.00000000       0.09147017 </v>
   </varray>
  </crystal>
  <varray name="positions" >
   <v>       0.44024411       0.43750000       0.43750000 </v>
   <v>       0.93750000       0.43750000       0.43750000 </v>
   <v>       0.43750000       0.93750000       0.43750000 </v>
   <v>       0.93750000       0.93750000       0.43750000 </v>
   <v>       0.43750000       0.43750000       0.93750000 </v>
   <v>       0.93750000       0.43750000       0.93750000 </v>
   <v>       0.43750000       0.93750000       0.93750000 </v>
   <v>       0.93750000       0.93750000       0.93750000 </v>
   <v>       0.43750000       0.18750000       0.18750000 </v>
   <v>       0.93750000       0.18750000       0.18750000 </v>
   <v>       0.43750000       0.68750000       0.18750000 </v>
   <v>       0.93750000       0.68750000       0.18750000 </v>
   <v>       0.43750000       0.18750000       0.68750000 </v>
   <v>       0.93750000       0.18750000       0.68750000 </v>
   <v>       0.43750000       0.68750000       0.68750000 </v>
   <v>       0.93750000       0.68750000       0.68750000 </v>
   <v>       0.18750000       0.43750000       0.19024411 </v>
   <v>       0.68750000       0.43750000       0.18750000 </v>
   <v>       0.18750000       0.93750000       0.18750000 </v>
   <v>       0.68750000       0.93750000       0.18750000 </v>
   <v>       0.18750000       0.43750000       0.68750000 </v>
   <v>       0.68750000       0.43750000       0.68750000 </v>
   <v>       0.18750000       0.93750000       0.68750000 </v>
   <v>       0.68750000       0.93750000       0.68750000 </v>
   <v>       0.18750000       0.18750000       0.43750000 </v>
   <v>       0.68750000       0.18750000       0.43750000 </v>
   <v>       0.18750000       0.68750000       0.43750000 </v>
   <v>       0.68750000       0.68750000       0.43750000 </v>
   <v>       0.18750000       0.18750000       0.93750000 </v>
   <v>       0.68750000       0.18750000       0.93750000 </v>
   <v>       0.18750000       0.68750000       0.93750000 </v>
   <v>       0.68750000       0.68750000       0.93750000 </v>
   <v>       0.06250000       0.06250000       0.06250000 </v>
   <v>       0.56250000       0.06250000       0.06250000 </v>
   <v>       0.06250000       0.56250000       0.06250000 </v>
   <v>       0.56250000       0.56250000       0.06250000 </v>
   <v>       0.06250000       0.06250000       0.56250000 </v>
   <v>       0.56250000       0.06250000       0.56250000 </v>
   <v>       0.06250000       0.56250000       0.56250000 </v>
   <v>       0.56250000       0.56250000       0.56250000 </v>
   <v>       0.06250000       0.31250000       0.31250000 </v>
   <v>       0.56250000       0.31250000       0.31250000 </v>
   <v>       0.06250000       0.81250000       0.31250000 </v>
   <v>       0.56250000       0.81250000       0.31250000 </v>
   <v>       0.06250000       0.31250000       0.81250000 </v>
   <v>       0.56250000       0.31250000       0.81250000 </v>
   <v>       0.06250000       0.81250000       0.81250000 </v>
   <v>       0.56250000       0.81250000       0.81250000 </v>
   <v>       0.31250000       0.06250000       0.31250000 </v>
   <v>       0.81250000       0.06250000       0.31250000 </v>
   <v>       0.31250000       0.56250000       0.31250000 </v>
   <v>       0.81250000       0.56250000       0.31250000 </v>
   <v>       0.31250000       0.06250000       0.81250000 </v>
   <v>       0.81250000       0.06250000       0.81250000 </v>
   <v>       0.31250000       0.56250000       0.81250000 </v>
   <v>       0.81250000       0.56250000       0.81250000 </v>
   <v>       0.31250000       0.31250000       0.06250000 </v>
   <v>       0.81250000       0.31250000       0.06250000 </v>
   <v>       0.31250000       0.81250000       0.06250000 </v>
   <v>       0.81250000       0.81250000       0.06250000 </v>
   <v>       0.31250000       0.31250000       0.56250000 </v>
   <v>       0.81250000       0.31250000       0.56250000 </v>
   <v>       0.31250000       0.81250000       0.56250000 </v>
   <v>       0.81250000       0.81250000       0.56250000 </v>
  </varray>
 </structure>
 <calculation>
  <scstep>
   <time name="dav">    5.50    5.50</time>
   <time name="total">    5.76    5.79</time>
   <energy>
    <i name="alphaZ">    105.52440745 </i>
    <i name="ewald">  -7265.47623966 </i>
    <i name="hartreedc">   -361.70779052 </i>
    <i name="XCdc">   -597.75718610 </i>
    <i name="pawpsdc">   5639.92317535 </i>
    <i name="pawaedc">  -4513.95313856 </i>
    <i name="eentropy">     -0.00122020 </i>
    <i name="bandstr">    856.85084977 </i>
    <i name="atom">   6596.14994790 </i>
    <i name="e_fr_energy">    459.55280545 </i>
    <i name="e_wo_entrp">    459.55402564 </i>
    <i name="e_0_energy">    459.55341554 </i>
   </energy>
  </scstep>
  <scstep>
   <time name="dav">    6.33    6.34</time>
   <time name="total">    6.34    6.35</time>
   <energy>
    <i name="e_fr_energy">   -300.08207266 </i>
    <i name="e_wo_entrp">   -300.08207266 </i>
    <i name="e_0_energy">   -300.08207266 </i>
   </energy>
  </scstep>
  <scstep>
   <time name="dav">    6.40    6.41</time>
   <time name="total">    6.40    6.41</time>
   <energy>
    <i name="e_fr_energy">   -351.03343156 </i>
    <i name="e_wo_entrp">   -351.03343156 </i>
    <i name="e_0_energy">   -351.03343156 </i>
   </energy>
  </scstep>
  <scstep>
   <time name="dav">    6.34    6.35</time>
   <time name="total">    6.35    6.41</time>
   <energy>
    <i name="e_fr_energy">   -352.27037456 </i>
    <i name="e_wo_entrp">   -352.27037456 </i>
    <i name="e_0_energy">   -352.27037456 </i>
   </energy>
  </scstep>
  <scstep>
   <time name="dav">    6.29    6.31</time>
   <time name="total">    6.59    6.63</time>
   <energy>
    <i name="e_fr_energy">   -352.31315267 </i>
    <i name="e_wo_entrp">   -352.31315267 </i>
    <i name="e_0_energy">   -352.31315267 </i>
   </energy>
  </scstep>
  <scstep>
   <time name="dav">    6.18    6.19</time>
   <time name="total">    6.77    6.78</time>
   <energy>
    <i name="e_fr_energy">   -348.58482580 </i>
    <i name="e_wo_entrp">   -348.58482580 </i>
    <i name="e_0_energy">   -348.58482580 </i>
   </energy>
  </scstep>
  <scstep>
   <time name="dav">    6.11    6.11</time>
   <time name="total">    6.67    6.68</time>
   <energy>
    <i name="e_fr_energy">   -346.87201088 </i>
    <i name="e_wo_entrp">   -346.87201088 </i>
    <i name="e_0_energy">   -346.87201088 </i>
   </energy>
  </scstep>
  <scstep>
   <time name="dav">    6.26    6.27</time>
   <time name="total">    6.83    6.83</time>
   <energy>
    <i name="e_fr_energy">   -346.89835863 </i>
    <i name="e_wo_entrp">   -346.89835863 </i>
    <i name="e_0_energy">   -346.89835863 </i>
   </energy>
  </scstep>
  <scstep>
   <time name="dav">    6.45    6.46</time>
   <time name="total">    7.02    7.03</time>
   <energy>
    <i name="e_fr_energy">   -346.90503132 </i>
    <i name="e_wo_entrp">   -346.90503132 </i>
    <i name="e_0_energy">   -346.90503132 </i>
   </energy>
  </scstep>
  <scstep>
   <time name="dav">    5.98    6.00</time>
   <time name="total">    6.55    6.59</time>
   <energy>
    <i name="e_fr_energy">   -346.90708479 </i>
    <i name="e_wo_entrp">   -346.90708479 </i>
    <i name="e_0_energy">   -346.90708479 </i>
   </energy>
  </scstep>
  <scstep>
   <time name="dav">    6.18    6.21</time>
   <time name="total">    6.75    6.79</time>
   <energy>
    <i name="e_fr_energy">   -346.90706734 </i>
    <i name="e_wo_entrp">   -346.90706734 </i>
    <i name="e_0_energy">   -346.90706734 </i>
   </energy>
  </scstep>
  <scstep>
   <time name="dav">    6.31    6.33</time>
   <time name="total">    6.87    6.91</time>
   <energy>
    <i name="e_fr_energy">   -346.90708133 </i>
    <i name="e_wo_entrp">   -346.90708133 </i>
    <i name="e_0_energy">   -346.90708133 </i>
   </energy>
  </scstep>
  <scstep>
   <time name="dav">    6.14    6.17</time>
   <time name="total">    6.71    6.74</time>
   <energy>
    <i name="e_fr_energy">   -346.90708196 </i>
    <i name="e_wo_entrp">   -346.90708196 </i>
    <i name="e_0_energy">   -346.90708196 </i>
   </energy>
  </scstep>
  <scstep>
   <time name="dav">    6.30    6.33</time>
   <time name="total">    6.87    6.90</time>
   <energy>
    <i name="e_fr_energy">   -346.90708249 </i>
    <i name="e_wo_entrp">   -346.90708249 </i>
    <i name="e_0_energy">   -346.90708249 </i>
   </energy>
  </scstep>
  <scstep>
   <time name="dav">    5.47    5.48</time>
   <time name="total">    6.04    6.15</time>
   <energy>
    <i name="e_fr_energy">   -346.90708225 </i>
    <i name="e_wo_entrp">   -346.90708225 </i>
    <i name="e_0_energy">   -346.90708225 </i>
   </energy>
  </scstep>
  <scstep>
   <time name="dav">    4.27    4.28</time>
   <time name="total">    4.84    4.86</time>
   <energy>
    <i name="e_fr_energy">   -346.90708233 </i>
    <i name="e_wo_entrp">   -346.90708233 </i>
    <i name="e_0_energy">   -346.90708233 </i>
   </energy>
  </scstep>
  <scstep>
   <time name="dav">    4.26    4.26</time>
   <time name="total">    4.83    4.83</time>
   <energy>
    <i name="e_fr_energy">   -346.90708232 </i>
    <i name="e_wo_entrp">   -346.90708232 </i>
    <i name="e_0_energy">   -346.90708232 </i>
   </energy>
  </scstep>
  <scstep>
   <time name="dav">    4.18    4.18</time>
   <time name="total">    4.75    4.76</time>
   <energy>
    <i name="e_fr_energy">   -346.90708233 </i>
    <i name="e_wo_entrp">   -346.90708233 </i>
    <i name="e_0_energy">   -346.90708233 </i>
   </energy>
  </scstep>
  <scstep>
   <time name="dav">    4.18    4.18</time>
   <time name="total">    4.44    4.45</time>
   <energy>
    <i name="alphaZ">    105.52440745 </i>
    <i name="ewald">  -7265.47623966 </i>
    <i name="hartreedc">   -485.13845506 </i>
    <i name="XCdc">   -577.61231838 </i>
    <i name="pawpsdc">  27883.41505158 </i>
    <i name="pawaedc"> -26764.13297927 </i>
    <i name="eentropy">      0.00000000 </i>
    <i name="bandstr">    160.36350311 </i>
    <i name="atom">   6596.14994790 </i>
    <i name="e_fr_energy">   -346.90708233 </i>
    <i name="e_wo_entrp">   -346.90708233 </i>
    <i name="e_0_energy">   -346.90708233 </i>
   </energy>
  </scstep>
  <structure>
   <crystal>
    <varray name="basis" >
     <v>      10.93252578       0.00000000       0.00000000 </v>
     <v>       0.00000000      10.93252578       0.00000000 </v>
     <v>       0.00000000       0.00000000      10.93252578 </v>
    </varray>
    <i name="volume">   1306.65679237 </i>
    <varray name="rec_basis" >
     <v>       0.09147017       0.00000000       0.00000000 </v>
     <v>       0.00000000       0.09147017       0.00000000 </v>
     <v>       0.00000000       0.00000000       0.09147017 </v>
    </varray>
   </crystal>
   <varray name="positions" >
    <v>       0.44024411       0.43750000       0.43750000 </v>
    <v>       0.93750000       0.43750000       0.43750000 </v>
    <v>       0.43750000       0.93750000       0.43750000 </v>
    <v>       0.93750000       0.93750000       0.43750000 </v>
    <v>       0.43750000       0.43750000       0.93750000 </v>
    <v>       0.93750000       0.43750000       0.93750000 </v>
    <v>       0.43750000       0.93750000       0.93750000 </v>
    <v>       0.93750000       0.93750000       0.93750000 </v>
    <v>       0.43750000       0.18750000       0.18750000 </v>
    <v>       0.93750000       0.18750000       0.18750000 </v>
    <v>       0.43750000       0.68750000       0.18750000 </v>
    <v>       0.93750000       0.68750000       0.18750000 </v>
    <v>       0.43750000       0.18750000       0.68750000 </v>
    <v>       0.93750000       0.18750000       0.68750000 </v>
    <v>       0.43750000       0.68750000       0.68750000 </v>
    <v>       0.93750000       0.68750000       0.68750000 </v>
    <v>       0.18750000       0.43750000       0.19024411 </v>
    <v>       0.68750000       0.43750000       0.18750000 </v>
    <v>       0.18750000       0.93750000       0.18750000 </v>
    <v>       0.68750000       0.93750000       0.18750000 </v>
    <v>       0.18750000       0.43750000       0.68750000 </v>
    <v>       0.68750000       0.43750000       0.68750000 </v>
    <v>       0.18750000       0.93750000       0.68750000 </v>
    <v>       0.68750000       0.93750000       0.68750000 </v>
    <v>       0.18750000       0.18750000       0.43750000 </v>
    <v>       0.68750000       0.18750000       0.43750000 </v>
    <v>       0.18750000       0.68750000       0.43750000 </v>
    <v>       0.68750000       0.68750000       0.43750000 </v>
    <v>       0.18750000       0.18750000       0.93750000 </v>
    <v>       0.68750000       0.18750000       0.93750000 </v>
    <v>       0.18750000       0.68750000       0.93750000 </v>
    <v>       0.68750000       0.68750000       0.93750000 </v>
    <v>       0.06250000       0.06250000       0.06250000 </v>
    <v>       0.56250000       0.06250000       0.06250000 </v>
    <v>       0.06250000       0.56250000       0.06250000 </v>
    <v>       0.56250000       0.56250000       0.06250000 </v>
    <v>       0.06250000       0.06250000       0.56250000 </v>
    <v>       0.56250000       0.06250000       0.56250000 </v>
    <v>       0.06250000       0.56250000       0.56250000 </v>
    <v>       0.56250000       0.56250000       0.56250000 </v>
    <v>       0.06250000       0.31250000       0.31250000 </v>
    <v>       0.56250000       0.31250000       0.31250000 </v>
    <v>       0.06250000       0.81250000       0.31250000 </v>
    <v>       0.56250000       0.81250000       0.31250000 </v>
    <v>       0.06250000       0.31250000       0.81250000 </v>
    <v>       0.56250000       0.31250000       0.81250000 </v>
    <v>       0.06250000       0.81250000       0.81250000 </v>
    <v>       0.56250000       0.81250000       0.81250000 </v>
    <v>       0.31250000       0.06250000       0.31250000 </v>
    <v>       0.81250000       0.06250000       0.31250000 </v>
    <v>       0.31250000       0.56250000       0.31250000 </v>
    <v>       0.81250000       0.56250000       0.31250000 </v>
    <v>       0.31250000       0.06250000       0.81250000 </v>
    <v>       0.81250000       0.06250000       0.81250000 </v>
    <v>       0.31250000       0.56250000       0.81250000 </v>
    <v>       0.81250000       0.56250000       0.81250000 </v>
    <v>       0.31250000       0.31250000       0.06250000 </v>
    <v>       0.81250000       0.31250000       0.06250000 </v>
    <v>       0.31250000       0.81250000       0.06250000 </v>
    <v>       0.81250000       0.81250000       0.06250000 </v>
    <v>       0.31250000       0.31250000       0.56250000 </v>
    <v>       0.81250000       0.31250000       0.56250000 </v>
    <v>       0.31250000       0.81250000       0.56250000 </v>
    <v>       0.81250000       0.81250000       0.56250000 </v>
   </varray>
  </structure>
  <varray name="forces" >
   <v>      -0.38157217       0.00270827       0.00562066 </v>
   <v>      -0.00513706      -0.00276649       0.00580755 </v>
   <v>      -0.00052815       0.00022910       0.00102472 </v>
   <v>       0.00166877      -0.00023365       0.00100780 </v>
   <v>      -0.00424312       0.00267016       0.00564825 </v>
   <v>       0.00538499      -0.00269033       0.00565058 </v>
   <v>      -0.00968345       0.00022539       0.00102030 </v>
   <v>      -0.00128460      -0.00023057       0.00101908 </v>
   <v>      -0.01021337       0.00009331      -0.01000847 </v>
   <v>       0.00274941       0.00300313      -0.01265457 </v>
   <v>      -0.01556667      -0.00018695      -0.01552481 </v>
   <v>      -0.00265779       0.00290585      -0.01300145 </v>
   <v>      -0.01254344      -0.00289420       0.00266149 </v>
   <v>       0.00022514      -0.00000618       0.00020870 </v>
   <v>      -0.01311533      -0.00299060      -0.00280467 </v>
   <v>      -0.00025888       0.00000265      -0.00022734 </v>
   <v>       0.00583847      -0.00272647      -0.38144306 </v>
   <v>       0.00580185      -0.00277052      -0.00437208 </v>
   <v>       0.00101333      -0.00023081      -0.00054549 </v>
   <v>       0.00101806      -0.00023427      -0.00970871 </v>
   <v>       0.00564241       0.00267429      -0.00501431 </v>
   <v>       0.00579929       0.00275137       0.00551416 </v>
   <v>       0.00103015       0.00022619       0.00168801 </v>
   <v>       0.00101930       0.00022930      -0.00127044 </v>
   <v>       0.00288095      -0.00014002       0.00312843 </v>
   <v>       0.00557124      -0.00384750      -0.00175145 </v>
   <v>       0.00846770       0.00012023       0.00842033 </v>
   <v>       0.00603096       0.00383841       0.00378069 </v>
   <v>      -0.00165119       0.00369428       0.00541897 </v>
   <v>       0.00079240      -0.00001667       0.00078580 </v>
   <v>       0.00369911      -0.00370355       0.00587934 </v>
   <v>       0.00125041       0.00001493       0.00124787 </v>
   <v>       0.00071408      -0.00013396      -0.00067925 </v>
   <v>       0.00688299       0.00001971       0.00682751 </v>
   <v>       0.06157262      -0.06026444       0.09368939 </v>
   <v>      -0.00058282      -0.00003955      -0.00051129 </v>
   <v>       0.00132245      -0.00003657       0.00131811 </v>
   <v>      -0.00072834       0.00017938       0.00067384 </v>
   <v>       0.00063057       0.00001176       0.00063061 </v>
   <v>       0.09642396       0.06544038       0.06677302 </v>
   <v>      -0.06639610      -0.06702973       0.09488893 </v>
   <v>       0.09488101      -0.06730735      -0.06755925 </v>
   <v>      -0.00059865      -0.00152179      -0.00211404 </v>
   <v>      -0.00216388      -0.00160792       0.00501088 </v>
   <v>      -0.00028837      -0.00156521      -0.00087809 </v>
   <v>      -0.00207582      -0.00186425      -0.00030711 </v>
   <v>      -0.00119657      -0.00135537      -0.00013896 </v>
   <v>       0.00546338      -0.00143931      -0.00121741 </v>
   <v>      -0.00022079       0.00003622      -0.00022919 </v>
   <v>       0.00134603       0.00004705       0.00693031 </v>
   <v>       0.15915024       0.00530095       0.15678139 </v>
   <v>       0.00064746       0.00030624      -0.00057351 </v>
   <v>       0.00677972      -0.00007452       0.00129582 </v>
   <v>       0.00022078       0.00001024       0.00020935 </v>
   <v>      -0.00052065      -0.00033802       0.00061322 </v>
   <v>       0.00126247      -0.00003621       0.00125806 </v>
   <v>      -0.06241768       0.06221897       0.09218186 </v>
   <v>      -0.00022665       0.00195454      -0.00207203 </v>
   <v>       0.00487929       0.00156727      -0.00210515 </v>
   <v>      -0.00121474       0.00142265       0.00538435 </v>
   <v>       0.09217581       0.06185476      -0.06122723 </v>
   <v>      -0.00091481       0.00160953      -0.00024523 </v>
   <v>      -0.00215398       0.00153136      -0.00057950 </v>
   <v>      -0.00008173       0.00138511      -0.00123528 </v>
  </varray>
  <varray name="stress" >
   <v>       0.00108883       0.33472391      -0.00026761 </v>
   <v>       0.33472397       0.02091096       0.33494455 </v>
   <v>      -0.00026761       0.33494456       0.00108417 </v>
  </varray>
  <energy>
   <i name="e_fr_energy">   -346.90708233 </i>
   <i name="e_wo_entrp">   -346.90708233 </i>
   <i name="e_0_energy">      0.00000000 </i>
  </energy>
  <time name="totalsc">  129.10  129.65</time>
  <eigenvalues>
   <array>
    <dimension dim="1">band</dimension>
    <dimension dim="2">kpoint</dimension>
    <dimension dim="3">spin</dimension>
    <field>eigene</field>
    <field>occ</field>
    <set>
     <set comment="spin 1">
      <set comment="kpoint 1">
       <r>   -5.9931    1.0000 </r>
       <r>   -5.4674    1.0000 </r>
       <r>   -5.4648    1.0000 </r>
       <r>   -5.4624    1.0000 </r>
       <r>   -4.9681    1.0000 </r>
       <r>   -4.9653    1.0000 </r>
       <r>   -4.9631    1.0000 </r>
       <r>   -4.5312    1.0000 </r>
       <r>   -4.4345    1.0000 </r>
       <r>   -4.4321    1.0000 </r>
       <r>   -4.4297    1.0000 </r>
       <r>   -4.0236    1.0000 </r>
       <r>   -4.0215    1.0000 </r>
       <r>   -4.0159    1.0000 </r>
       <r>   -4.0147    1.0000 </r>
       <r>   -4.0144    1.0000 </r>
       <r>   -4.0114    1.0000 </r>
       <r>   -3.8288    1.0000 </r>
       <r>   -3.8244    1.0000 </r>
       <r>   -3.8217    1.0000 </r>
       <r>   -3.3299    1.0000 </r>
       <r>   -3.3263    1.0000 </r>
       <r>   -3.3235    1.0000 </r>
       <r>   -2.9632    1.0000 </r>
       <r>   -2.9593    1.0000 </r>
       <r>   -2.9562    1.0000 </r>
       <r>   -2.7983    1.0000 </r>
       <r>   -2.7952    1.0000 </r>
       <r>   -2.7905    1.0000 </r>
       <r>   -2.7890    1.0000 </r>
       <r>   -2.7880    1.0000 </r>
       <r>   -2.7858    1.0000 </r>
       <r>   -1.2569    1.0000 </r>
       <r>   -1.2518    1.0000 </r>
       <r>   -1.2483    1.0000 </r>
       <r>   -1.2465    1.0000 </r>
       <r>   -1.2447    1.0000 </r>
       <r>   -1.2423    1.0000 </r>
       <r>   -1.1532    1.0000 </r>
       <r>   -1.1508    1.0000 </r>
       <r>   -1.1468    1.0000 </r>
       <r>   -1.0337    1.0000 </r>
       <r>   -1.0324    1.0000 </r>
       <r>   -1.0268    1.0000 </r>
       <r>   -0.9584    1.0000 </r>
       <r>   -0.9474    1.0000 </r>
       <r>   -0.9463    1.0000 </r>
       <r>   -0.2481    1.0000 </r>
       <r>   -0.1645    1.0000 </r>
       <r>   -0.1640    1.0000 </r>
       <r>   -0.1600    1.0000 </r>
       <r>   -0.1580    1.0000 </r>
       <r>   -0.1545    1.0000 </r>
       <r>   -0.1511    1.0000 </r>
       <r>    0.7064    1.0000 </r>
       <r>    0.7132    1.0000 </r>
       <r>    0.7165    1.0000 </r>
       <r>    1.0444    1.0000 </r>
       <r>    1.0471    1.0000 </r>
       <r>    1.0500    1.0000 </r>
       <r>    1.6534    1.0000 </r>
       <r>    1.6548    1.0000 </r>
       <r>    1.6565    1.0000 </r>
       <r>    1.6582    1.0000 </r>
       <r>    1.6592    1.0000 </r>
       <r>    1.6605    1.0000 </r>
       <r>    1.7139    1.0000 </r>
       <r>    1.7176    1.0000 </r>
       <r>    1.7197    1.0000 </r>
       <r>    2.2644    1.0000 </r>
       <r>    2.2654    1.0000 </r>
       <r>    2.2678    1.0000 </r>
       <r>    2.3674    1.0000 </r>
       <r>    2.3692    1.0000 </r>
       <r>    2.3704    1.0000 </r>
       <r>    2.3732    1.0000 </r>
       <r>    2.3757    1.0000 </r>
       <r>    2.3767    1.0000 </r>
       <r>    2.4242    1.0000 </r>
       <r>    2.4268    1.0000 </r>
       <r>    2.4303    1.0000 </r>
       <r>    2.7299    1.0000 </r>
       <r>    2.7320    1.0000 </r>
       <r>    2.7348    1.0000 </r>
       <r>    2.7361    1.0000 </r>
       <r>    2.7370    1.0000 </r>
       <r>    2.7389    1.0000 </r>
       <r>    2.9985    1.0000 </r>
       <r>    2.9997    1.0000 </r>
       <r>    3.0030    1.0000 </r>
       <r>    3.0125    1.0000 </r>
       <r>    3.0144    1.0000 </r>
       <r>    3.0173    1.0000 </r>
       <r>    3.3568    1.0000 </r>
       <r>    3.3604    1.0000 </r>
       <r>    3.3630    1.0000 </r>
       <r>    3.3792    1.0000 </r>
       <r>    3.3803    1.0000 </r>
       <r>    3.3846    1.0000 </r>
       <r>    3.4656    1.0000 </r>
       <r>    3.4669    1.0000 </r>
       <r>    3.4708    1.0000 </r>
       <r>    3.7316    1.0000 </r>
       <r>    3.7347    1.0000 </r>
       <r>    3.7398    1.0000 </r>
       <r>    3.7410    1.0000 </r>
       <r>    3.7421    1.0000 </r>
       <r>    3.7428    1.0000 </r>
       <r>    3.7795    1.0000 </r>
       <r>    3.7808    1.0000 </r>
       <r>    3.7856    1.0000 </r>
       <r>    4.0365    1.0000 </r>
       <r>    4.0981    1.0000 </r>
       <r>    4.0988    1.0000 </r>
       <r>    4.1038    1.0000 </r>
       <r>    4.3404    1.0000 </r>
       <r>    4.3416    1.0000 </r>
       <r>    4.3466    1.0000 </r>
       <r>    4.3954    1.0000 </r>
       <r>    4.4034    1.0000 </r>
       <r>    4.4051    1.0000 </r>
       <r>    4.5617    1.0000 </r>
       <r>    4.5664    1.0000 </r>
       <r>    4.8695    1.0000 </r>
       <r>    4.8707    1.0000 </r>
       <r>    4.8778    1.0000 </r>
       <r>    5.3493    1.0000 </r>
       <r>    5.3547    1.0000 </r>
       <r>    6.5617    0.0000 </r>
       <r>    6.5654    0.0000 </r>
       <r>    6.5679    0.0000 </r>
       <r>    7.0014    0.0000 </r>
       <r>    7.0042    0.0000 </r>
       <r>    7.0100    0.0000 </r>
       <r>    7.2352    0.0000 </r>
       <r>    7.4888    0.0000 </r>
       <r>    7.4921    0.0000 </r>
       <r>    7.4959    0.0000 </r>
       <r>    7.6152    0.0000 </r>
       <r>    7.6177    0.0000 </r>
       <r>    7.6216    0.0000 </r>
       <r>    7.7777    0.0000 </r>
       <r>    7.7804    0.0000 </r>
       <r>    7.7825    0.0000 </r>
       <r>    7.7988    0.0000 </r>
       <r>    7.8009    0.0000 </r>
       <r>    7.8062    0.0000 </r>
       <r>    8.0230    0.0000 </r>
       <r>    8.0252    0.0000 </r>
       <r>    8.0287    0.0000 </r>
       <r>    8.0305    0.0000 </r>
       <r>    8.0310    0.0000 </r>
       <r>    8.0344    0.0000 </r>
       <r>    8.0837    0.0000 </r>
       <r>    8.2929    0.0000 </r>
       <r>    8.2945    0.0000 </r>
       <r>    8.2982    0.0000 </r>
       <r>    8.4942    0.0000 </r>
       <r>    8.4989    0.0000 </r>
       <r>    8.5019    0.0000 </r>
       <r>    8.5054    0.0000 </r>
       <r>    8.5073    0.0000 </r>
       <r>    8.5187    0.0000 </r>
       <r>    8.5467    0.0000 </r>
      </set>
      <set comment="kpoint 2">
       <r>   -5.9931    1.0000 </r>
       <r>   -5.4681    1.0000 </r>
       <r>   -5.4647    1.0000 </r>
       <r>   -5.4614    1.0000 </r>
       <r>   -4.9689    1.0000 </r>
       <r>   -4.9655    1.0000 </r>
       <r>   -4.9621    1.0000 </r>
       <r>   -4.5322    1.0000 </r>
       <r>   -4.4355    1.0000 </r>
       <r>   -4.4325    1.0000 </r>
       <r>   -4.4293    1.0000 </r>
       <r>   -4.0237    1.0000 </r>
       <r>   -4.0195    1.0000 </r>
       <r>   -4.0164    1.0000 </r>
       <r>   -4.0163    1.0000 </r>
       <r>   -4.0133    1.0000 </r>
       <r>   -4.0095    1.0000 </r>
       <r>   -3.8285    1.0000 </r>
       <r>   -3.8244    1.0000 </r>
       <r>   -3.8199    1.0000 </r>
       <r>   -3.3320    1.0000 </r>
       <r>   -3.3284    1.0000 </r>
       <r>   -3.3248    1.0000 </r>
       <r>   -2.9641    1.0000 </r>
       <r>   -2.9591    1.0000 </r>
       <r>   -2.9544    1.0000 </r>
       <r>   -2.7978    1.0000 </r>
       <r>   -2.7937    1.0000 </r>
       <r>   -2.7910    1.0000 </r>
       <r>   -2.7909    1.0000 </r>
       <r>   -2.7880    1.0000 </r>
       <r>   -2.7837    1.0000 </r>
       <r>   -1.2576    1.0000 </r>
       <r>   -1.2524    1.0000 </r>
       <r>   -1.2490    1.0000 </r>
       <r>   -1.2483    1.0000 </r>
       <r>   -1.2454    1.0000 </r>
       <r>   -1.2407    1.0000 </r>
       <r>   -1.1562    1.0000 </r>
       <r>   -1.1511    1.0000 </r>
       <r>   -1.1460    1.0000 </r>
       <r>   -1.0379    1.0000 </r>
       <r>   -1.0328    1.0000 </r>
       <r>   -1.0272    1.0000 </r>
       <r>   -0.9538    1.0000 </r>
       <r>   -0.9468    1.0000 </r>
       <r>   -0.9394    1.0000 </r>
       <r>   -0.2446    1.0000 </r>
       <r>   -0.1691    1.0000 </r>
       <r>   -0.1648    1.0000 </r>
       <r>   -0.1606    1.0000 </r>
       <r>   -0.1598    1.0000 </r>
       <r>   -0.1552    1.0000 </r>
       <r>   -0.1512    1.0000 </r>
       <r>    0.7095    1.0000 </r>
       <r>    0.7143    1.0000 </r>
       <r>    0.7190    1.0000 </r>
       <r>    1.0432    1.0000 </r>
       <r>    1.0471    1.0000 </r>
       <r>    1.0510    1.0000 </r>
       <r>    1.6538    1.0000 </r>
       <r>    1.6547    1.0000 </r>
       <r>    1.6555    1.0000 </r>
       <r>    1.6585    1.0000 </r>
       <r>    1.6591    1.0000 </r>
       <r>    1.6602    1.0000 </r>
       <r>    1.7128    1.0000 </r>
       <r>    1.7160    1.0000 </r>
       <r>    1.7193    1.0000 </r>
       <r>    2.2650    1.0000 </r>
       <r>    2.2677    1.0000 </r>
       <r>    2.2705    1.0000 </r>
       <r>    2.3654    1.0000 </r>
       <r>    2.3668    1.0000 </r>
       <r>    2.3701    1.0000 </r>
       <r>    2.3718    1.0000 </r>
       <r>    2.3747    1.0000 </r>
       <r>    2.3762    1.0000 </r>
       <r>    2.4219    1.0000 </r>
       <r>    2.4252    1.0000 </r>
       <r>    2.4280    1.0000 </r>
       <r>    2.7287    1.0000 </r>
       <r>    2.7336    1.0000 </r>
       <r>    2.7345    1.0000 </r>
       <r>    2.7354    1.0000 </r>
       <r>    2.7363    1.0000 </r>
       <r>    2.7411    1.0000 </r>
       <r>    2.9974    1.0000 </r>
       <r>    2.9990    1.0000 </r>
       <r>    3.0008    1.0000 </r>
       <r>    3.0097    1.0000 </r>
       <r>    3.0140    1.0000 </r>
       <r>    3.0174    1.0000 </r>
       <r>    3.3576    1.0000 </r>
       <r>    3.3620    1.0000 </r>
       <r>    3.3655    1.0000 </r>
       <r>    3.3801    1.0000 </r>
       <r>    3.3844    1.0000 </r>
       <r>    3.3892    1.0000 </r>
       <r>    3.4632    1.0000 </r>
       <r>    3.4667    1.0000 </r>
       <r>    3.4701    1.0000 </r>
       <r>    3.7333    1.0000 </r>
       <r>    3.7381    1.0000 </r>
       <r>    3.7409    1.0000 </r>
       <r>    3.7415    1.0000 </r>
       <r>    3.7444    1.0000 </r>
       <r>    3.7495    1.0000 </r>
       <r>    3.7767    1.0000 </r>
       <r>    3.7807    1.0000 </r>
       <r>    3.7846    1.0000 </r>
       <r>    4.0404    1.0000 </r>
       <r>    4.0958    1.0000 </r>
       <r>    4.0983    1.0000 </r>
       <r>    4.1000    1.0000 </r>
       <r>    4.3371    1.0000 </r>
       <r>    4.3409    1.0000 </r>
       <r>    4.3449    1.0000 </r>
       <r>    4.4007    1.0000 </r>
       <r>    4.4056    1.0000 </r>
       <r>    4.4114    1.0000 </r>
       <r>    4.5588    1.0000 </r>
       <r>    4.5670    1.0000 </r>
       <r>    4.8649    1.0000 </r>
       <r>    4.8700    1.0000 </r>
       <r>    4.8753    1.0000 </r>
       <r>    5.3451    1.0000 </r>
       <r>    5.3544    1.0000 </r>
       <r>    6.5603    0.0000 </r>
       <r>    6.5633    0.0000 </r>
       <r>    6.5666    0.0000 </r>
       <r>    7.0005    0.0000 </r>
       <r>    7.0045    0.0000 </r>
       <r>    7.0083    0.0000 </r>
       <r>    7.2337    0.0000 </r>
       <r>    7.4872    0.0000 </r>
       <r>    7.4907    0.0000 </r>
       <r>    7.4942    0.0000 </r>
       <r>    7.6151    0.0000 </r>
       <r>    7.6197    0.0000 </r>
       <r>    7.6238    0.0000 </r>
       <r>    7.7789    0.0000 </r>
       <r>    7.7796    0.0000 </r>
       <r>    7.7809    0.0000 </r>
       <r>    7.7993    0.0000 </r>
       <r>    7.8011    0.0000 </r>
       <r>    7.8032    0.0000 </r>
       <r>    8.0233    0.0000 </r>
       <r>    8.0271    0.0000 </r>
       <r>    8.0292    0.0000 </r>
       <r>    8.0318    0.0000 </r>
       <r>    8.0340    0.0000 </r>
       <r>    8.0374    0.0000 </r>
       <r>    8.0815    0.0000 </r>
       <r>    8.2923    0.0000 </r>
       <r>    8.2949    0.0000 </r>
       <r>    8.2976    0.0000 </r>
       <r>    8.4925    0.0000 </r>
       <r>    8.4990    0.0000 </r>
       <r>    8.5014    0.0000 </r>
       <r>    8.5050    0.0000 </r>
       <r>    8.5112    0.0000 </r>
       <r>    8.5195    0.0000 </r>
       <r>    8.5406    0.0000 </r>
      </set>
      <set comment="kpoint 3">
       <r>   -5.9932    1.0000 </r>
       <r>   -5.4670    1.0000 </r>
       <r>   -5.4647    1.0000 </r>
       <r>   -5.4622    1.0000 </r>
       <r>   -4.9679    1.0000 </r>
       <r>   -4.9657    1.0000 </r>
       <r>   -4.9630    1.0000 </r>
       <r>   -4.5332    1.0000 </r>
       <r>   -4.4352    1.0000 </r>
       <r>   -4.4327    1.0000 </r>
       <r>   -4.4304    1.0000 </r>
       <r>   -4.0215    1.0000 </r>
       <r>   -4.0184    1.0000 </r>
       <r>   -4.0181    1.0000 </r>
       <r>   -4.0168    1.0000 </r>
       <r>   -4.0116    1.0000 </r>
       <r>   -4.0096    1.0000 </r>
       <r>   -3.8270    1.0000 </r>
       <r>   -3.8243    1.0000 </r>
       <r>   -3.8196    1.0000 </r>
       <r>   -3.3334    1.0000 </r>
       <r>   -3.3303    1.0000 </r>
       <r>   -3.3267    1.0000 </r>
       <r>   -2.9621    1.0000 </r>
       <r>   -2.9590    1.0000 </r>
       <r>   -2.9554    1.0000 </r>
       <r>   -2.7959    1.0000 </r>
       <r>   -2.7938    1.0000 </r>
       <r>   -2.7928    1.0000 </r>
       <r>   -2.7912    1.0000 </r>
       <r>   -2.7865    1.0000 </r>
       <r>   -2.7831    1.0000 </r>
       <r>   -1.2560    1.0000 </r>
       <r>   -1.2532    1.0000 </r>
       <r>   -1.2510    1.0000 </r>
       <r>   -1.2490    1.0000 </r>
       <r>   -1.2457    1.0000 </r>
       <r>   -1.2413    1.0000 </r>
       <r>   -1.1551    1.0000 </r>
       <r>   -1.1518    1.0000 </r>
       <r>   -1.1487    1.0000 </r>
       <r>   -1.0380    1.0000 </r>
       <r>   -1.0329    1.0000 </r>
       <r>   -1.0319    1.0000 </r>
       <r>   -0.9472    1.0000 </r>
       <r>   -0.9462    1.0000 </r>
       <r>   -0.9344    1.0000 </r>
       <r>   -0.2410    1.0000 </r>
       <r>   -0.1688    1.0000 </r>
       <r>   -0.1657    1.0000 </r>
       <r>   -0.1622    1.0000 </r>
       <r>   -0.1603    1.0000 </r>
       <r>   -0.1563    1.0000 </r>
       <r>   -0.1557    1.0000 </r>
       <r>    0.7121    1.0000 </r>
       <r>    0.7154    1.0000 </r>
       <r>    0.7223    1.0000 </r>
       <r>    1.0442    1.0000 </r>
       <r>    1.0472    1.0000 </r>
       <r>    1.0497    1.0000 </r>
       <r>    1.6534    1.0000 </r>
       <r>    1.6548    1.0000 </r>
       <r>    1.6560    1.0000 </r>
       <r>    1.6575    1.0000 </r>
       <r>    1.6591    1.0000 </r>
       <r>    1.6605    1.0000 </r>
       <r>    1.7123    1.0000 </r>
       <r>    1.7144    1.0000 </r>
       <r>    1.7181    1.0000 </r>
       <r>    2.2676    1.0000 </r>
       <r>    2.2701    1.0000 </r>
       <r>    2.2710    1.0000 </r>
       <r>    2.3648    1.0000 </r>
       <r>    2.3653    1.0000 </r>
       <r>    2.3687    1.0000 </r>
       <r>    2.3715    1.0000 </r>
       <r>    2.3728    1.0000 </r>
       <r>    2.3746    1.0000 </r>
       <r>    2.4200    1.0000 </r>
       <r>    2.4231    1.0000 </r>
       <r>    2.4254    1.0000 </r>
       <r>    2.7311    1.0000 </r>
       <r>    2.7330    1.0000 </r>
       <r>    2.7338    1.0000 </r>
       <r>    2.7351    1.0000 </r>
       <r>    2.7378    1.0000 </r>
       <r>    2.7399    1.0000 </r>
       <r>    2.9954    1.0000 </r>
       <r>    2.9987    1.0000 </r>
       <r>    3.0002    1.0000 </r>
       <r>    3.0097    1.0000 </r>
       <r>    3.0126    1.0000 </r>
       <r>    3.0149    1.0000 </r>
       <r>    3.3611    1.0000 </r>
       <r>    3.3635    1.0000 </r>
       <r>    3.3667    1.0000 </r>
       <r>    3.3843    1.0000 </r>
       <r>    3.3888    1.0000 </r>
       <r>    3.3891    1.0000 </r>
       <r>    3.4624    1.0000 </r>
       <r>    3.4663    1.0000 </r>
       <r>    3.4681    1.0000 </r>
       <r>    3.7395    1.0000 </r>
       <r>    3.7405    1.0000 </r>
       <r>    3.7416    1.0000 </r>
       <r>    3.7430    1.0000 </r>
       <r>    3.7478    1.0000 </r>
       <r>    3.7505    1.0000 </r>
       <r>    3.7758    1.0000 </r>
       <r>    3.7803    1.0000 </r>
       <r>    3.7824    1.0000 </r>
       <r>    4.0442    1.0000 </r>
       <r>    4.0920    1.0000 </r>
       <r>    4.0969    1.0000 </r>
       <r>    4.0986    1.0000 </r>
       <r>    4.3354    1.0000 </r>
       <r>    4.3404    1.0000 </r>
       <r>    4.3416    1.0000 </r>
       <r>    4.4062    1.0000 </r>
       <r>    4.4080    1.0000 </r>
       <r>    4.4171    1.0000 </r>
       <r>    4.5593    1.0000 </r>
       <r>    4.5641    1.0000 </r>
       <r>    4.8624    1.0000 </r>
       <r>    4.8692    1.0000 </r>
       <r>    4.8707    1.0000 </r>
       <r>    5.3448    1.0000 </r>
       <r>    5.3501    1.0000 </r>
       <r>    6.5586    0.0000 </r>
       <r>    6.5616    0.0000 </r>
       <r>    6.5652    0.0000 </r>
       <r>    6.9988    0.0000 </r>
       <r>    7.0048    0.0000 </r>
       <r>    7.0076    0.0000 </r>
       <r>    7.2323    0.0000 </r>
       <r>    7.4854    0.0000 </r>
       <r>    7.4894    0.0000 </r>
       <r>    7.4927    0.0000 </r>
       <r>    7.6170    0.0000 </r>
       <r>    7.6217    0.0000 </r>
       <r>    7.6239    0.0000 </r>
       <r>    7.7768    0.0000 </r>
       <r>    7.7788    0.0000 </r>
       <r>    7.7821    0.0000 </r>
       <r>    7.7964    0.0000 </r>
       <r>    7.8019    0.0000 </r>
       <r>    7.8035    0.0000 </r>
       <r>    8.0263    0.0000 </r>
       <r>    8.0302    0.0000 </r>
       <r>    8.0307    0.0000 </r>
       <r>    8.0324    0.0000 </r>
       <r>    8.0359    0.0000 </r>
       <r>    8.0378    0.0000 </r>
       <r>    8.0793    0.0000 </r>
       <r>    8.2916    0.0000 </r>
       <r>    8.2955    0.0000 </r>
       <r>    8.2972    0.0000 </r>
       <r>    8.4959    0.0000 </r>
       <r>    8.4979    0.0000 </r>
       <r>    8.5020    0.0000 </r>
       <r>    8.5036    0.0000 </r>
       <r>    8.5073    0.0000 </r>
       <r>    8.5181    0.0000 </r>
       <r>    8.5416    0.0000 </r>
      </set>
      <set comment="kpoint 4">
       <r>   -5.9931    1.0000 </r>
       <r>   -5.4657    1.0000 </r>
       <r>   -5.4647    1.0000 </r>
       <r>   -5.4638    1.0000 </r>
       <r>   -4.9664    1.0000 </r>
       <r>   -4.9655    1.0000 </r>
       <r>   -4.9646    1.0000 </r>
       <r>   -4.5323    1.0000 </r>
       <r>   -4.4338    1.0000 </r>
       <r>   -4.4324    1.0000 </r>
       <r>   -4.4309    1.0000 </r>
       <r>   -4.0244    1.0000 </r>
       <r>   -4.0187    1.0000 </r>
       <r>   -4.0169    1.0000 </r>
       <r>   -4.0159    1.0000 </r>
       <r>   -4.0141    1.0000 </r>
       <r>   -4.0088    1.0000 </r>
       <r>   -3.8286    1.0000 </r>
       <r>   -3.8243    1.0000 </r>
       <r>   -3.8200    1.0000 </r>
       <r>   -3.3314    1.0000 </r>
       <r>   -3.3283    1.0000 </r>
       <r>   -3.3254    1.0000 </r>
       <r>   -2.9641    1.0000 </r>
       <r>   -2.9591    1.0000 </r>
       <r>   -2.9545    1.0000 </r>
       <r>   -2.7988    1.0000 </r>
       <r>   -2.7937    1.0000 </r>
       <r>   -2.7910    1.0000 </r>
       <r>   -2.7907    1.0000 </r>
       <r>   -2.7881    1.0000 </r>
       <r>   -2.7826    1.0000 </r>
       <r>   -1.2587    1.0000 </r>
       <r>   -1.2521    1.0000 </r>
       <r>   -1.2489    1.0000 </r>
       <r>   -1.2484    1.0000 </r>
       <r>   -1.2456    1.0000 </r>
       <r>   -1.2401    1.0000 </r>
       <r>   -1.1560    1.0000 </r>
       <r>   -1.1510    1.0000 </r>
       <r>   -1.1458    1.0000 </r>
       <r>   -1.0379    1.0000 </r>
       <r>   -1.0328    1.0000 </r>
       <r>   -1.0271    1.0000 </r>
       <r>   -0.9534    1.0000 </r>
       <r>   -0.9469    1.0000 </r>
       <r>   -0.9400    1.0000 </r>
       <r>   -0.2446    1.0000 </r>
       <r>   -0.1693    1.0000 </r>
       <r>   -0.1642    1.0000 </r>
       <r>   -0.1614    1.0000 </r>
       <r>   -0.1589    1.0000 </r>
       <r>   -0.1562    1.0000 </r>
       <r>   -0.1506    1.0000 </r>
       <r>    0.7085    1.0000 </r>
       <r>    0.7143    1.0000 </r>
       <r>    0.7200    1.0000 </r>
       <r>    1.0429    1.0000 </r>
       <r>    1.0471    1.0000 </r>
       <r>    1.0513    1.0000 </r>
       <r>    1.6518    1.0000 </r>
       <r>    1.6556    1.0000 </r>
       <r>    1.6567    1.0000 </r>
       <r>    1.6574    1.0000 </r>
       <r>    1.6584    1.0000 </r>
       <r>    1.6620    1.0000 </r>
       <r>    1.7128    1.0000 </r>
       <r>    1.7160    1.0000 </r>
       <r>    1.7193    1.0000 </r>
       <r>    2.2650    1.0000 </r>
       <r>    2.2677    1.0000 </r>
       <r>    2.2705    1.0000 </r>
       <r>    2.3649    1.0000 </r>
       <r>    2.3670    1.0000 </r>
       <r>    2.3703    1.0000 </r>
       <r>    2.3715    1.0000 </r>
       <r>    2.3747    1.0000 </r>
       <r>    2.3768    1.0000 </r>
       <r>    2.4207    1.0000 </r>
       <r>    2.4250    1.0000 </r>
       <r>    2.4291    1.0000 </r>
       <r>    2.7302    1.0000 </r>
       <r>    2.7324    1.0000 </r>
       <r>    2.7343    1.0000 </r>
       <r>    2.7356    1.0000 </r>
       <r>    2.7375    1.0000 </r>
       <r>    2.7396    1.0000 </r>
       <r>    2.9972    1.0000 </r>
       <r>    2.9994    1.0000 </r>
       <r>    3.0006    1.0000 </r>
       <r>    3.0097    1.0000 </r>
       <r>    3.0142    1.0000 </r>
       <r>    3.0172    1.0000 </r>
       <r>    3.3597    1.0000 </r>
       <r>    3.3621    1.0000 </r>
       <r>    3.3633    1.0000 </r>
       <r>    3.3802    1.0000 </r>
       <r>    3.3842    1.0000 </r>
       <r>    3.3893    1.0000 </r>
       <r>    3.4636    1.0000 </r>
       <r>    3.4667    1.0000 </r>
       <r>    3.4697    1.0000 </r>
       <r>    3.7339    1.0000 </r>
       <r>    3.7398    1.0000 </r>
       <r>    3.7402    1.0000 </r>
       <r>    3.7423    1.0000 </r>
       <r>    3.7425    1.0000 </r>
       <r>    3.7485    1.0000 </r>
       <r>    3.7772    1.0000 </r>
       <r>    3.7809    1.0000 </r>
       <r>    3.7844    1.0000 </r>
       <r>    4.0404    1.0000 </r>
       <r>    4.0958    1.0000 </r>
       <r>    4.0983    1.0000 </r>
       <r>    4.1000    1.0000 </r>
       <r>    4.3374    1.0000 </r>
       <r>    4.3409    1.0000 </r>
       <r>    4.3446    1.0000 </r>
       <r>    4.4002    1.0000 </r>
       <r>    4.4056    1.0000 </r>
       <r>    4.4118    1.0000 </r>
       <r>    4.5588    1.0000 </r>
       <r>    4.5671    1.0000 </r>
       <r>    4.8652    1.0000 </r>
       <r>    4.8700    1.0000 </r>
       <r>    4.8750    1.0000 </r>
       <r>    5.3451    1.0000 </r>
       <r>    5.3544    1.0000 </r>
       <r>    6.5603    0.0000 </r>
       <r>    6.5633    0.0000 </r>
       <r>    6.5666    0.0000 </r>
       <r>    6.9991    0.0000 </r>
       <r>    7.0045    0.0000 </r>
       <r>    7.0097    0.0000 </r>
       <r>    7.2337    0.0000 </r>
       <r>    7.4859    0.0000 </r>
       <r>    7.4908    0.0000 </r>
       <r>    7.4954    0.0000 </r>
       <r>    7.6152    0.0000 </r>
       <r>    7.6197    0.0000 </r>
       <r>    7.6239    0.0000 </r>
       <r>    7.7760    0.0000 </r>
       <r>    7.7799    0.0000 </r>
       <r>    7.7832    0.0000 </r>
       <r>    7.7994    0.0000 </r>
       <r>    7.8012    0.0000 </r>
       <r>    7.8034    0.0000 </r>
       <r>    8.0241    0.0000 </r>
       <r>    8.0274    0.0000 </r>
       <r>    8.0296    0.0000 </r>
       <r>    8.0317    0.0000 </r>
       <r>    8.0336    0.0000 </r>
       <r>    8.0367    0.0000 </r>
       <r>    8.0813    0.0000 </r>
       <r>    8.2914    0.0000 </r>
       <r>    8.2950    0.0000 </r>
       <r>    8.2985    0.0000 </r>
       <r>    8.4957    0.0000 </r>
       <r>    8.4981    0.0000 </r>
       <r>    8.5004    0.0000 </r>
       <r>    8.5058    0.0000 </r>
       <r>    8.5091    0.0000 </r>
       <r>    8.5141    0.0000 </r>
       <r>    8.5398    0.0000 </r>
      </set>
     </set>
    </set>
   </array>
  </eigenvalues>
  <separator name="orbital magnetization" >
   <v name="MAGDIPOLOUT">      0.00000000      0.00000000      0.00000000</v>
  </separator>
  <dos>
   <i name="efermi">      5.59841407 </i>
   <total>
    <array>
     <dimension dim="1">gridpoints</dimension>
     <dimension dim="2">spin</dimension>
     <field>energy</field>
     <field>total</field>
     <field>integrated</field>
     <set>
      <set comment="spin 1">
       <r>    -6.7202     0.0000     0.0000 </r>
       <r>    -6.6669     0.0000     0.0000 </r>
       <r>    -6.6136     0.0000     0.0000 </r>
       <r>    -6.5603     0.0000     0.0000 </r>
       <r>    -6.5069     0.0000     0.0000 </r>
       <r>    -6.4536     0.0000     0.0000 </r>
       <r>    -6.4003     0.0000     0.0000 </r>
       <r>    -6.3470     0.0000     0.0000 </r>
       <r>    -6.2937     0.0000     0.0000 </r>
       <r>    -6.2404     0.0000     0.0000 </r>
       <r>    -6.1871     0.0000     0.0000 </r>
       <r>    -6.1338     0.0013     0.0001 </r>
       <r>    -6.0804     0.2526     0.0135 </r>
       <r>    -6.0271     6.0553     0.3364 </r>
       <r>    -5.9738    20.2379     1.4153 </r>
       <r>    -5.9205    10.2182     1.9601 </r>
       <r>    -5.8672     0.7421     1.9996 </r>
       <r>    -5.8139     0.0069     2.0000 </r>
       <r>    -5.7606     0.0000     2.0000 </r>
       <r>    -5.7073     0.0000     2.0000 </r>
       <r>    -5.6539     0.0000     2.0000 </r>
       <r>    -5.6006     0.0070     2.0004 </r>
       <r>    -5.5473     1.1015     2.0591 </r>
       <r>    -5.4940    21.8782     3.2255 </r>
       <r>    -5.4407    61.5795     6.5085 </r>
       <r>    -5.3874    26.3489     7.9132 </r>
       <r>    -5.3341     1.6154     7.9993 </r>
       <r>    -5.2807     0.0126     8.0000 </r>
       <r>    -5.2274     0.0000     8.0000 </r>
       <r>    -5.1741     0.0000     8.0000 </r>
       <r>    -5.1208     0.0007     8.0000 </r>
       <r>    -5.0675     0.2231     8.0119 </r>
       <r>    -5.0142     9.3015     8.5078 </r>
       <r>    -4.9609    52.6073    11.3125 </r>
       <r>    -4.9076    44.6843    13.6947 </r>
       <r>    -4.8542     5.6318    13.9950 </r>
       <r>    -4.8009     0.0943    14.0000 </r>
       <r>    -4.7476     0.0002    14.0000 </r>
       <r>    -4.6943     0.0001    14.0000 </r>
       <r>    -4.6410     0.0393    14.0021 </r>
       <r>    -4.5877     2.1531    14.1169 </r>
       <r>    -4.5344    15.8843    14.9637 </r>
       <r>    -4.4811    26.2099    16.3611 </r>
       <r>    -4.4277    55.3570    19.3123 </r>
       <r>    -4.3744    44.7027    21.6955 </r>
       <r>    -4.3211     5.6170    21.9950 </r>
       <r>    -4.2678     0.0938    22.0000 </r>
       <r>    -4.2145     0.0002    22.0000 </r>
       <r>    -4.1612     0.0055    22.0003 </r>
       <r>    -4.1079     1.1542    22.0618 </r>
       <r>    -4.0546    30.9189    23.7102 </r>
       <r>    -4.0012   117.6961    29.9849 </r>
       <r>    -3.9479    69.2191    33.6752 </r>
       <r>    -3.8946     8.7029    34.1392 </r>
       <r>    -3.8413    32.9448    35.8956 </r>
       <r>    -3.7880    59.7317    39.0800 </r>
       <r>    -3.7347    16.6026    39.9652 </r>
       <r>    -3.6814     0.6503    39.9998 </r>
       <r>    -3.6280     0.0032    40.0000 </r>
       <r>    -3.5747     0.0000    40.0000 </r>
       <r>    -3.5214     0.0000    40.0000 </r>
       <r>    -3.4681     0.0046    40.0002 </r>
       <r>    -3.4148     0.8303    40.0445 </r>
       <r>    -3.3615    18.8860    41.0514 </r>
       <r>    -3.3082    60.7810    44.2918 </r>
       <r>    -3.2549    29.8859    45.8851 </r>
       <r>    -3.2015     2.1356    45.9989 </r>
       <r>    -3.1482     0.0197    46.0000 </r>
       <r>    -3.0949     0.0075    46.0004 </r>
       <r>    -3.0416     1.1389    46.0611 </r>
       <r>    -2.9883    22.0967    47.2392 </r>
       <r>    -2.9350    61.4499    50.5152 </r>
       <r>    -2.8817    27.4353    51.9779 </r>
       <r>    -2.8284    33.3268    53.7546 </r>
       <r>    -2.7750   118.1591    60.0540 </r>
       <r>    -2.7217    68.1038    63.6848 </r>
       <r>    -2.6684     5.8446    63.9964 </r>
       <r>    -2.6151     0.0667    64.0000 </r>
       <r>    -2.5618     0.0001    64.0000 </r>
       <r>    -2.5085     0.0000    64.0000 </r>
       <r>    -2.4552     0.0000    64.0000 </r>
       <r>    -2.4019     0.0000    64.0000 </r>
       <r>    -2.3485     0.0000    64.0000 </r>
       <r>    -2.2952     0.0000    64.0000 </r>
       <r>    -2.2419     0.0000    64.0000 </r>
       <r>    -2.1886     0.0000    64.0000 </r>
       <r>    -2.1353     0.0000    64.0000 </r>
       <r>    -2.0820     0.0000    64.0000 </r>
       <r>    -2.0287     0.0000    64.0000 </r>
       <r>    -1.9753     0.0000    64.0000 </r>
       <r>    -1.9220     0.0000    64.0000 </r>
       <r>    -1.8687     0.0000    64.0000 </r>
       <r>    -1.8154     0.0000    64.0000 </r>
       <r>    -1.7621     0.0000    64.0000 </r>
       <r>    -1.7088     0.0000    64.0000 </r>
       <r>    -1.6555     0.0000    64.0000 </r>
       <r>    -1.6022     0.0000    64.0000 </r>
       <r>    -1.5488     0.0000    64.0000 </r>
       <r>    -1.4955     0.0000    64.0000 </r>
       <r>    -1.4422     0.0000    64.0000 </r>
       <r>    -1.3889     0.0101    64.0005 </r>
       <r>    -1.3356     1.7110    64.0918 </r>
       <r>    -1.2823    37.7382    66.1037 </r>
       <r>    -1.2290   122.3237    72.6251 </r>
       <r>    -1.1757    86.2629    77.2240 </r>
       <r>    -1.1223    66.6056    80.7750 </r>
       <r>    -1.0690    39.0478    82.8567 </r>
       <r>    -1.0157    63.8228    86.2593 </r>
       <r>    -0.9624    67.1635    89.8400 </r>
       <r>    -0.9091    61.3841    93.1126 </r>
       <r>    -0.8558    16.0052    93.9658 </r>
       <r>    -0.8025     0.6375    93.9998 </r>
       <r>    -0.7492     0.0033    94.0000 </r>
       <r>    -0.6958     0.0000    94.0000 </r>
       <r>    -0.6425     0.0000    94.0000 </r>
       <r>    -0.5892     0.0000    94.0000 </r>
       <r>    -0.5359     0.0000    94.0000 </r>
       <r>    -0.4826     0.0000    94.0000 </r>
       <r>    -0.4293     0.0000    94.0000 </r>
       <r>    -0.3760     0.0039    94.0002 </r>
       <r>    -0.3226     0.5148    94.0277 </r>
       <r>    -0.2693     8.8310    94.4985 </r>
       <r>    -0.2160    33.5572    96.2875 </r>
       <r>    -0.1627   100.2127   101.6301 </r>
       <r>    -0.1094   101.8765   107.0614 </r>
       <r>    -0.0561    17.1949   107.9782 </r>
       <r>    -0.0028     0.4084   107.9999 </r>
       <r>     0.0505     0.0012   108.0000 </r>
       <r>     0.1039     0.0000   108.0000 </r>
       <r>     0.1572     0.0000   108.0000 </r>
       <r>     0.2105     0.0000   108.0000 </r>
       <r>     0.2638     0.0000   108.0000 </r>
       <r>     0.3171     0.0000   108.0000 </r>
       <r>     0.3704     0.0000   108.0000 </r>
       <r>     0.4237     0.0000   108.0000 </r>
       <r>     0.4770     0.0000   108.0000 </r>
       <r>     0.5304     0.0000   108.0000 </r>
       <r>     0.5837     0.0139   108.0007 </r>
       <r>     0.6370     1.6814   108.0904 </r>
       <r>     0.6903    26.4998   109.5032 </r>
       <r>     0.7436    61.2367   112.7679 </r>
       <r>     0.7969    21.9612   113.9387 </r>
       <r>     0.8502     1.1424   113.9996 </r>
       <r>     0.9035     0.0106   114.0002 </r>
       <r>     0.9569     0.6137   114.0329 </r>
       <r>     1.0102    16.1479   114.8938 </r>
       <r>     1.0635    59.5438   118.0682 </r>
       <r>     1.1168    33.4565   119.8519 </r>
       <r>     1.1701     2.7489   119.9984 </r>
       <r>     1.2234     0.0294   120.0000 </r>
       <r>     1.2767     0.0000   120.0000 </r>
       <r>     1.3300     0.0000   120.0000 </r>
       <r>     1.3834     0.0000   120.0000 </r>
       <r>     1.4367     0.0000   120.0000 </r>
       <r>     1.4900     0.0003   120.0000 </r>
       <r>     1.5433     0.1510   120.0081 </r>
       <r>     1.5966     9.8639   120.5339 </r>
       <r>     1.6499    88.2836   125.2406 </r>
       <r>     1.7032   145.6255   133.0043 </r>
       <r>     1.7566    78.9195   137.2117 </r>
       <r>     1.8099    14.3273   137.9756 </r>
       <r>     1.8632     0.4564   137.9999 </r>
       <r>     1.9165     0.0019   138.0000 </r>
       <r>     1.9698     0.0000   138.0000 </r>
       <r>     2.0231     0.0000   138.0000 </r>
       <r>     2.0764     0.0000   138.0000 </r>
       <r>     2.1297     0.0055   138.0003 </r>
       <r>     2.1831     0.9434   138.0506 </r>
       <r>     2.2364    20.2382   139.1295 </r>
       <r>     2.2897    63.7682   142.5292 </r>
       <r>     2.3430    75.6581   146.5628 </r>
       <r>     2.3963   147.2125   154.4111 </r>
       <r>     2.4496   111.8909   160.3763 </r>
       <r>     2.5029    28.8526   161.9145 </r>
       <r>     2.5562     1.5908   161.9994 </r>
       <r>     2.6096     0.0586   162.0025 </r>
       <r>     2.6629     4.7187   162.2540 </r>
       <r>     2.7162    62.4458   165.5832 </r>
       <r>     2.7695   120.6906   172.0176 </r>
       <r>     2.8228    35.6856   173.9201 </r>
       <r>     2.8761     1.5260   174.0014 </r>
       <r>     2.9294     3.7163   174.1996 </r>
       <r>     2.9827    54.0427   177.0807 </r>
       <r>     3.0361   120.9158   183.5271 </r>
       <r>     3.0894    43.9358   185.8694 </r>
       <r>     3.1427     2.4306   185.9990 </r>
       <r>     3.1960     0.0184   186.0000 </r>
       <r>     3.2493     0.0933   186.0050 </r>
       <r>     3.3026     6.4664   186.3497 </r>
       <r>     3.3559    66.1852   189.8782 </r>
       <r>     3.4093   120.7431   196.3154 </r>
       <r>     3.4626    80.8546   200.6260 </r>
       <r>     3.5159    53.9844   203.5041 </r>
       <r>     3.5692     9.0871   203.9885 </r>
       <r>     3.6225     0.3134   204.0052 </r>
       <r>     3.6758     7.5804   204.4094 </r>
       <r>     3.7291    83.1661   208.8432 </r>
       <r>     3.7824   164.7450   217.6262 </r>
       <r>     3.8358    74.3206   221.5885 </r>
       <r>     3.8891     7.5881   221.9930 </r>
       <r>     3.9424     0.2386   222.0057 </r>
       <r>     3.9957     4.0080   222.2194 </r>
       <r>     4.0490    27.6473   223.6934 </r>
       <r>     4.1023    65.9515   227.2094 </r>
       <r>     4.1556    46.4597   229.6863 </r>
       <r>     4.2089     5.7958   229.9953 </r>
       <r>     4.2623     1.5856   230.0799 </r>
       <r>     4.3156    25.8280   231.4568 </r>
       <r>     4.3689    77.8635   235.6080 </r>
       <r>     4.4222    82.1626   239.9883 </r>
       <r>     4.4755    35.3340   241.8720 </r>
       <r>     4.5288    15.0226   242.6729 </r>
       <r>     4.5821    40.3372   244.8234 </r>
       <r>     4.6354    20.5258   245.9177 </r>
       <r>     4.6888     1.5286   245.9992 </r>
       <r>     4.7421     0.0332   246.0010 </r>
       <r>     4.7954     2.0097   246.1081 </r>
       <r>     4.8487    28.8530   247.6464 </r>
       <r>     4.9020    60.8641   250.8912 </r>
       <r>     4.9553    19.8603   251.9500 </r>
       <r>     5.0086     0.9321   251.9997 </r>
       <r>     5.0620     0.0056   252.0000 </r>
       <r>     5.1153     0.0000   252.0000 </r>
       <r>     5.1686     0.0000   252.0000 </r>
       <r>     5.2219     0.0123   252.0007 </r>
       <r>     5.2752     1.3493   252.0726 </r>
       <r>     5.3285    19.3221   253.1027 </r>
       <r>     5.3818    40.5754   255.2659 </r>
       <r>     5.4351    13.1544   255.9672 </r>
       <r>     5.4885     0.6116   255.9998 </r>
       <r>     5.5418     0.0036   256.0000 </r>
       <r>     5.5951     0.0000   256.0000 </r>
       <r>     5.6484     0.0000   256.0000 </r>
       <r>     5.7017     0.0000   256.0000 </r>
       <r>     5.7550     0.0000   256.0000 </r>
       <r>     5.8083     0.0000   256.0000 </r>
       <r>     5.8616     0.0000   256.0000 </r>
       <r>     5.9150     0.0000   256.0000 </r>
       <r>     5.9683     0.0000   256.0000 </r>
       <r>     6.0216     0.0000   256.0000 </r>
       <r>     6.0749     0.0000   256.0000 </r>
       <r>     6.1282     0.0000   256.0000 </r>
       <r>     6.1815     0.0000   256.0000 </r>
       <r>     6.2348     0.0000   256.0000 </r>
       <r>     6.2881     0.0000   256.0000 </r>
       <r>     6.3415     0.0000   256.0000 </r>
       <r>     6.3948     0.0001   256.0000 </r>
       <r>     6.4481     0.0646   256.0034 </r>
       <r>     6.5014     4.4638   256.2414 </r>
       <r>     6.5547    40.8589   258.4197 </r>
       <r>     6.6080    55.4343   261.3751 </r>
       <r>     6.6613    11.3976   261.9827 </r>
       <r>     6.7147     0.3227   261.9999 </r>
       <r>     6.7680     0.0011   262.0000 </r>
       <r>     6.8213     0.0000   262.0000 </r>
       <r>     6.8746     0.0146   262.0008 </r>
       <r>     6.9279     1.7483   262.0940 </r>
       <r>     6.9812    27.1323   263.5405 </r>
       <r>     7.0345    61.2782   266.8074 </r>
       <r>     7.0878    21.3014   267.9430 </r>
       <r>     7.1412     1.2276   268.0085 </r>
       <r>     7.1945     4.8456   268.2668 </r>
       <r>     7.2478    19.5400   269.3086 </r>
       <r>     7.3011    11.9025   269.9431 </r>
       <r>     7.3544     1.0618   269.9997 </r>
       <r>     7.4077     1.0994   270.0583 </r>
       <r>     7.4610    21.5993   271.2099 </r>
       <r>     7.5143    61.5560   274.4916 </r>
       <r>     7.5677    34.6992   276.3415 </r>
       <r>     7.6210    51.6797   279.0967 </r>
       <r>     7.6743    47.7161   281.6406 </r>
       <r>     7.7276    16.6625   282.5289 </r>
       <r>     7.7809    79.6640   286.7760 </r>
       <r>     7.8342   108.6874   292.5705 </r>
       <r>     7.8875    25.8486   293.9485 </r>
       <r>     7.9408     2.2918   294.0707 </r>
       <r>     7.9942    33.5372   295.8587 </r>
       <r>     8.0475   125.2269   302.5349 </r>
       <r>     8.1008    86.0869   307.1244 </r>
       <r>     8.1541    15.6162   307.9570 </r>
       <r>     8.2074     1.5596   308.0401 </r>
       <r>     8.2607    18.0457   309.0022 </r>
       <r>     8.3140    60.5290   312.2292 </r>
       <r>     8.3674    30.9213   313.8777 </r>
       <r>     8.4207     4.5936   314.1226 </r>
       <r>     8.4740    43.9747   316.4670 </r>
       <r>     8.5273   132.4628   323.5290 </r>
       <r>     8.5806    74.7009   327.5115 </r>
       <r>     8.6339     8.9428   327.9883 </r>
       <r>     8.6872     0.2195   328.0000 </r>
       <r>     8.7405     0.0009   328.0000 </r>
       <r>     8.7939     0.0000   328.0000 </r>
       <r>     8.8472     0.0000   328.0000 </r>
       <r>     8.9005     0.0000   328.0000 </r>
       <r>     8.9538     0.0000   328.0000 </r>
       <r>     9.0071     0.0000   328.0000 </r>
       <r>     9.0604     0.0000   328.0000 </r>
       <r>     9.1137     0.0000   328.0000 </r>
       <r>     9.1670     0.0000   328.0000 </r>
       <r>     9.2204     0.0000   328.0000 </r>
       <r>     9.2737     0.0000   328.0000 </r>
      </set>
     </set>
    </array>
   </total>
  </dos>
 </calculation>
 <structure name="finalpos" >
  <crystal>
   <varray name="basis" >
    <v>      10.93252578       0.00000000       0.00000000 </v>
    <v>       0.00000000      10.93252578       0.00000000 </v>
    <v>       0.00000000       0.00000000      10.93252578 </v>
   </varray>
   <i name="volume">   1306.65679237 </i>
   <varray name="rec_basis" >
    <v>       0.09147017       0.00000000       0.00000000 </v>
    <v>       0.00000000       0.09147017       0.00000000 </v>
    <v>       0.00000000       0.00000000       0.09147017 </v>
   </varray>
  </crystal>
  <varray name="positions" >
   <v>       0.44024411       0.43750000       0.43750000 </v>
   <v>       0.93750000       0.43750000       0.43750000 </v>
   <v>       0.43750000       0.93750000       0.43750000 </v>
   <v>       0.93750000       0.93750000       0.43750000 </v>
   <v>       0.43750000       0.43750000       0.93750000 </v>
   <v>       0.93750000       0.43750000       0.93750000 </v>
   <v>       0.43750000       0.93750000       0.93750000 </v>
   <v>       0.93750000       0.93750000       0.93750000 </v>
   <v>       0.43750000       0.18750000       0.18750000 </v>
   <v>       0.93750000       0.18750000       0.18750000 </v>
   <v>       0.43750000       0.68750000       0.18750000 </v>
   <v>       0.93750000       0.68750000       0.18750000 </v>
   <v>       0.43750000       0.18750000       0.68750000 </v>
   <v>       0.93750000       0.18750000       0.68750000 </v>
   <v>       0.43750000       0.68750000       0.68750000 </v>
   <v>       0.93750000       0.68750000       0.68750000 </v>
   <v>       0.18750000       0.43750000       0.19024411 </v>
   <v>       0.68750000       0.43750000       0.18750000 </v>
   <v>       0.18750000       0.93750000       0.18750000 </v>
   <v>       0.68750000       0.93750000       0.18750000 </v>
   <v>       0.18750000       0.43750000       0.68750000 </v>
   <v>       0.68750000       0.43750000       0.68750000 </v>
   <v>       0.18750000       0.93750000       0.68750000 </v>
   <v>       0.68750000       0.93750000       0.68750000 </v>
   <v>       0.18750000       0.18750000       0.43750000 </v>
   <v>       0.68750000       0.18750000       0.43750000 </v>
   <v>       0.18750000       0.68750000       0.43750000 </v>
   <v>       0.68750000       0.68750000       0.43750000 </v>
   <v>       0.18750000       0.18750000       0.93750000 </v>
   <v>       0.68750000       0.18750000       0.93750000 </v>
   <v>       0.18750000       0.68750000       0.93750000 </v>
   <v>       0.68750000       0.68750000       0.93750000 </v>
   <v>       0.06250000       0.06250000       0.06250000 </v>
   <v>       0.56250000       0.06250000       0.06250000 </v>
   <v>       0.06250000       0.56250000       0.06250000 </v>
   <v>       0.56250000       0.56250000       0.06250000 </v>
   <v>       0.06250000       0.06250000       0.56250000 </v>
   <v>       0.56250000       0.06250000       0.56250000 </v>
   <v>       0.06250000       0.56250000       0.56250000 </v>
   <v>       0.56250000       0.56250000       0.56250000 </v>
   <v>       0.06250000       0.31250000       0.31250000 </v>
   <v>       0.56250000       0.31250000       0.31250000 </v>
   <v>       0.06250000       0.81250000       0.31250000 </v>
   <v>       0.56250000       0.81250000       0.31250000 </v>
   <v>       0.06250000       0.31250000       0.81250000 </v>
   <v>       0.56250000       0.31250000       0.81250000 </v>
   <v>       0.06250000       0.81250000       0.81250000 </v>
   <v>       0.56250000       0.81250000       0.81250000 </v>
   <v>       0.31250000       0.06250000       0.31250000 </v>
   <v>       0.81250000       0.06250000       0.31250000 </v>
   <v>       0.31250000       0.56250000       0.31250000 </v>
   <v>       0.81250000       0.56250000       0.31250000 </v>
   <v>       0.31250000       0.06250000       0.81250000 </v>
   <v>       0.81250000       0.06250000       0.81250000 </v>
   <v>       0.31250000       0.56250000       0.81250000 </v>
   <v>       0.81250000       0.56250000       0.81250000 </v>
   <v>       0.31250000       0.31250000       0.06250000 </v>
   <v>       0.81250000       0.31250000       0.06250000 </v>
   <v>       0.31250000       0.81250000       0.06250000 </v>
   <v>       0.81250000       0.81250000       0.06250000 </v>
   <v>       0.31250000       0.31250000       0.56250000 </v>
   <v>       0.81250000       0.31250000       0.56250000 </v>
   <v>       0.31250000       0.81250000       0.56250000 </v>
   <v>       0.81250000       0.81250000       0.56250000 </v>
  </varray>
 </structure>
</modeling>
