<?xml version="1.0" encoding="ISO-8859-1"?>
<modeling>
 <generator>
  <i name="program" type="string">vasp </i>
  <i name="version" type="string">5.4.1  </i>
  <i name="subversion" type="string">05Feb16 (build Mar 26 2016 11:58:25) complex                          parallel </i>
  <i name="platform" type="string">IFC91_ompi </i>
  <i name="date" type="string">2017 03 12 </i>
  <i name="time" type="string">12:16:26 </i>
 </generator>
 <incar>
  <i type="string" name="PREC">accurate</i>
  <i type="int" name="IALGO">    38</i>
  <i type="logical" name="ADDGRID"> T  </i>
  <i type="int" name="NELMIN">     5</i>
  <i type="int" name="IBRION">    -1</i>
  <i name="EDIFF">      0.00000001</i>
  <i name="ENCUT">    300.00000000</i>
  <i type="logical" name="LREAL"> F  </i>
  <i type="int" name="ISMEAR">     0</i>
  <i name="SIGMA">      0.05000000</i>
  <i type="logical" name="LWAVE"> F  </i>
  <i type="logical" name="LCHARG"> F  </i>
  <v type="int" name="KPOINT_BSE">    -1     0     0     0</v>
 </incar>
 <kpoints>
  <generation param="Monkhorst-Pack">
   <v type="int" name="divisions">       2        2        2 </v>
   <v name="usershift">      0.00000000       0.00000000       0.00000000 </v>
   <v name="genvec1">      0.50000000       0.00000000       0.00000000 </v>
   <v name="genvec2">      0.00000000       0.50000000       0.00000000 </v>
   <v name="genvec3">      0.00000000       0.00000000       0.50000000 </v>
   <v name="shift">      0.50000000       0.50000000       0.50000000 </v>
  </generation>
  <varray name="kpointlist" >
   <v>       0.25000000       0.25000000       0.25000000 </v>
   <v>      -0.25000000       0.25000000       0.25000000 </v>
   <v>       0.25000000      -0.25000000       0.25000000 </v>
  </varray>
  <varray name="weights" >
   <v>       0.25000000 </v>
   <v>       0.25000000 </v>
   <v>       0.50000000 </v>
  </varray>
 </kpoints>
 <parameters>
  <separator name="general" >
   <i type="string" name="SYSTEM">unknown system</i>
   <i type="logical" name="LCOMPAT"> F  </i>
  </separator>
  <separator name="electronic" >
   <i type="string" name="PREC">accura</i>
   <i name="ENMAX">    300.00000000</i>
   <i name="ENAUG">    322.06900000</i>
   <i name="EDIFF">      0.00000001</i>
   <i type="int" name="IALGO">    38</i>
   <i type="int" name="IWAVPR">    10</i>
   <i type="int" name="NBANDS">   164</i>
   <i name="NELECT">    256.00000000</i>
   <i type="int" name="TURBO">     0</i>
   <i type="int" name="IRESTART">     0</i>
   <i type="int" name="NREBOOT">     0</i>
   <i type="int" name="NMIN">     0</i>
   <i name="EREF">      0.00000000</i>
   <separator name="electronic smearing" >
    <i type="int" name="ISMEAR">     0</i>
    <i name="SIGMA">      0.05000000</i>
    <i name="KSPACING">      0.50000000</i>
    <i type="logical" name="KGAMMA"> T  </i>
   </separator>
   <separator name="electronic projectors" >
    <i type="logical" name="LREAL"> F  </i>
    <v name="ROPT">      0.00000000</v>
    <i type="int" name="LMAXPAW">  -100</i>
    <i type="int" name="LMAXMIX">     2</i>
    <i type="logical" name="NLSPLINE"> F  </i>
   </separator>
   <separator name="electronic startup" >
    <i type="int" name="ISTART">     0</i>
    <i type="int" name="ICHARG">     2</i>
    <i type="int" name="INIWAV">     1</i>
   </separator>
   <separator name="electronic spin" >
    <i type="int" name="ISPIN">     1</i>
    <i type="logical" name="LNONCOLLINEAR"> F  </i>
    <v name="MAGMOM">      1.00000000      1.00000000      1.00000000      1.00000000      1.00000000      1.00000000      1.00000000      1.00000000      1.00000000      1.00000000      1.00000000      1.00000000      1.00000000      1.00000000      1.00000000      1.00000000      1.00000000      1.00000000      1.00000000      1.00000000
      1.00000000      1.00000000      1.00000000      1.00000000      1.00000000      1.00000000      1.00000000      1.00000000      1.00000000      1.00000000      1.00000000      1.00000000      1.00000000      1.00000000      1.00000000      1.00000000      1.00000000      1.00000000      1.00000000      1.00000000
      1.00000000      1.00000000      1.00000000      1.00000000      1.00000000      1.00000000      1.00000000      1.00000000      1.00000000      1.00000000      1.00000000      1.00000000      1.00000000      1.00000000      1.00000000      1.00000000      1.00000000      1.00000000      1.00000000      1.00000000
      1.00000000      1.00000000      1.00000000      1.00000000</v>
    <i name="NUPDOWN">     -1.00000000</i>
    <i type="logical" name="LSORBIT"> F  </i>
    <v name="SAXIS">      0.00000000      0.00000000      1.00000000</v>
    <i type="logical" name="LSPIRAL"> F  </i>
    <v name="QSPIRAL">      0.00000000      0.00000000      0.00000000</v>
    <i type="logical" name="LZEROZ"> F  </i>
   </separator>
   <separator name="electronic exchange-correlation" >
    <i type="logical" name="LASPH"> F  </i>
    <i type="logical" name="LMETAGGA"> F  </i>
   </separator>
   <separator name="electronic convergence" >
    <i type="int" name="NELM">    60</i>
    <i type="int" name="NELMDL">    -5</i>
    <i type="int" name="NELMIN">     5</i>
    <i name="ENINI">    300.00000000</i>
    <separator name="electronic convergence detail" >
     <i type="logical" name="LDIAG"> T  </i>
     <i type="logical" name="LSUBROT"> F  </i>
     <i name="WEIMIN">      0.00000000</i>
     <i name="EBREAK">      0.00000000</i>
     <i name="DEPER">      0.30000000</i>
     <i type="int" name="NRMM">     4</i>
     <i name="TIME">      0.40000000</i>
    </separator>
   </separator>
   <separator name="electronic mixer" >
    <i name="AMIX">      0.40000000</i>
    <i name="BMIX">      1.00000000</i>
    <i name="AMIN">      0.10000000</i>
    <i name="AMIX_MAG">      1.60000000</i>
    <i name="BMIX_MAG">      1.00000000</i>
    <separator name="electronic mixer details" >
     <i type="int" name="IMIX">     4</i>
     <i type="logical" name="MIXFIRST"> F  </i>
     <i type="int" name="MAXMIX">   -45</i>
     <i name="WC">    100.00000000</i>
     <i type="int" name="INIMIX">     1</i>
     <i type="int" name="MIXPRE">     1</i>
     <i type="int" name="MREMOVE">     5</i>
    </separator>
   </separator>
   <separator name="electronic dipolcorrection" >
    <i type="logical" name="LDIPOL"> F  </i>
    <i type="logical" name="LMONO"> F  </i>
    <i type="int" name="IDIPOL">     0</i>
    <i name="EPSILON">      1.00000000</i>
    <v name="DIPOL">   -100.00000000   -100.00000000   -100.00000000</v>
    <i name="EFIELD">      0.00000000</i>
   </separator>
  </separator>
  <separator name="grids" >
   <i type="int" name="NGX">    64</i>
   <i type="int" name="NGY">    64</i>
   <i type="int" name="NGZ">    64</i>
   <i type="int" name="NGXF">   128</i>
   <i type="int" name="NGYF">   128</i>
   <i type="int" name="NGZF">   128</i>
   <i type="logical" name="ADDGRID"> T  </i>
  </separator>
  <separator name="ionic" >
   <i type="int" name="NSW">     0</i>
   <i type="int" name="IBRION">    -1</i>
   <i type="int" name="ISIF">     2</i>
   <i name="PSTRESS">      0.00000000</i>
   <i name="EDIFFG">      0.00000010</i>
   <i type="int" name="NFREE">     0</i>
   <i name="POTIM">      0.50000000</i>
   <i name="SMASS">     -3.00000000</i>
   <i name="SCALEE">      1.00000000</i>
  </separator>
  <separator name="ionic md" >
   <i name="TEBEG">      0.00010000</i>
   <i name="TEEND">      0.00010000</i>
   <i type="int" name="NBLOCK">     1</i>
   <i type="int" name="KBLOCK">     1</i>
   <i type="int" name="NPACO">   256</i>
   <i name="APACO">     16.00000000</i>
  </separator>
  <separator name="symmetry" >
   <i type="int" name="ISYM">     2</i>
   <i name="SYMPREC">      0.00001000</i>
  </separator>
  <separator name="dos" >
   <i type="logical" name="LORBIT"> F  </i>
   <v name="RWIGS">     -1.00000000</v>
   <i type="int" name="NEDOS">   301</i>
   <i name="EMIN">     10.00000000</i>
   <i name="EMAX">    -10.00000000</i>
   <i name="EFERMI">      0.00000000</i>
  </separator>
  <separator name="writing" >
   <i type="int" name="NWRITE">     2</i>
   <i type="logical" name="LWAVE"> F  </i>
   <i type="logical" name="LCHARG"> F  </i>
   <i type="logical" name="LPARD"> F  </i>
   <i type="logical" name="LVTOT"> F  </i>
   <i type="logical" name="LVHAR"> F  </i>
   <i type="logical" name="LELF"> F  </i>
   <i type="logical" name="LOPTICS"> F  </i>
   <v name="STM">      0.00000000      0.00000000      0.00000000      0.00000000      0.00000000      0.00000000      0.00000000</v>
  </separator>
  <separator name="performance" >
   <i type="int" name="NPAR">     4</i>
   <i type="int" name="NSIM">     4</i>
   <i type="int" name="NBLK">    -1</i>
   <i type="logical" name="LPLANE"> T  </i>
   <i type="logical" name="LSCALAPACK"> T  </i>
   <i type="logical" name="LSCAAWARE"> F  </i>
   <i type="logical" name="LSCALU"> F  </i>
   <i type="logical" name="LASYNC"> F  </i>
   <i type="logical" name="LORBITALREAL"> F  </i>
  </separator>
  <separator name="miscellaneous" >
   <i type="int" name="IDIOT">     3</i>
   <i type="logical" name="LMUSIC"> F  </i>
   <v name="POMASS">     28.08500000</v>
   <v name="DARWINR">      0.00000000</v>
   <v name="DARWINV">      1.00000000</v>
   <i type="logical" name="LCORR"> T  </i>
  </separator>
  <i type="logical" name="GGA_COMPAT"> T  </i>
  <i type="logical" name="LBERRY"> F  </i>
  <i type="int" name="ICORELEVEL">     0</i>
  <i type="logical" name="LDAU"> F  </i>
  <i type="int" name="I_CONSTRAINED_M">     0</i>
  <separator name="electronic exchange-correlation" >
   <i type="string" name="GGA">--</i>
   <i type="int" name="VOSKOWN">     0</i>
   <i type="logical" name="LHFCALC"> F  </i>
   <i type="string" name="PRECFOCK"></i>
   <i type="logical" name="LSYMGRAD"> F  </i>
   <i type="logical" name="LHFONE"> F  </i>
   <i type="logical" name="LRHFCALC"> F  </i>
   <i type="logical" name="LTHOMAS"> F  </i>
   <i type="logical" name="LMODELHF"> F  </i>
   <i name="ENCUT4O">     -1.00000000</i>
   <i type="int" name="EXXOEP">     0</i>
   <i type="int" name="FOURORBIT">     0</i>
   <i name="AEXX">      0.00000000</i>
   <i name="HFALPHA">      0.00000000</i>
   <i name="MCALPHA">      0.00000000</i>
   <i name="ALDAX">      1.00000000</i>
   <i name="AGGAX">      1.00000000</i>
   <i name="ALDAC">      1.00000000</i>
   <i name="AGGAC">      1.00000000</i>
   <i type="int" name="NKREDX">     1</i>
   <i type="int" name="NKREDY">     1</i>
   <i type="int" name="NKREDZ">     1</i>
   <i type="logical" name="SHIFTRED"> F  </i>
   <i type="logical" name="ODDONLY"> F  </i>
   <i type="logical" name="EVENONLY"> F  </i>
   <i type="int" name="LMAXFOCK">     0</i>
   <i type="int" name="NMAXFOCKAE">     0</i>
   <i type="logical" name="LFOCKAEDFT"> F  </i>
   <i name="HFSCREEN">      0.00000000</i>
   <i name="HFSCREENC">      0.00000000</i>
   <i type="int" name="NBANDSGWLOW">     0</i>
  </separator>
  <separator name="vdW DFT" >
   <i type="logical" name="LUSE_VDW"> F  </i>
   <i name="Zab_VDW">     -0.84910000</i>
   <i name="PARAM1">      0.12340000</i>
   <i name="PARAM2">      1.00000000</i>
   <i name="PARAM3">      0.00000000</i>
  </separator>
  <separator name="model GW" >
   <i type="int" name="MODEL_GW">     0</i>
   <i name="MODEL_EPS0">     12.24990743</i>
   <i name="MODEL_ALPHA">      1.00000000</i>
  </separator>
  <separator name="linear response parameters" >
   <i type="logical" name="LEPSILON"> F  </i>
   <i type="logical" name="LRPA"> F  </i>
   <i type="logical" name="LNABLA"> F  </i>
   <i type="logical" name="LVEL"> F  </i>
   <i type="int" name="KINTER">     0</i>
   <i name="CSHIFT">      0.10000000</i>
   <i name="OMEGAMAX">     -1.00000000</i>
   <i name="DEG_THRESHOLD">      0.00200000</i>
  </separator>
  <separator name="orbital magnetization" >
   <i type="logical" name="NUCIND"> F  </i>
   <v name="MAGPOS">      0.00000000      0.00000000      0.00000000</v>
   <i type="logical" name="LNICSALL"> T  </i>
   <i type="logical" name="ORBITALMAG"> F  </i>
   <i type="logical" name="LMAGBLOCH"> F  </i>
   <i type="logical" name="LCHIMAG"> F  </i>
   <i type="logical" name="LGAUGE"> T  </i>
   <i type="int" name="MAGATOM">     0</i>
   <v name="MAGDIPOL">      0.00000000      0.00000000      0.00000000</v>
   <v name="AVECCONST">      0.00000000      0.00000000      0.00000000</v>
  </separator>
  <separator name="response functions" >
   <i type="logical" name="LADDER"> F  </i>
   <i type="logical" name="LFXC"> F  </i>
   <i type="logical" name="LHARTREE"> T  </i>
   <i type="int" name="IBSE">     0</i>
   <v type="int" name="KPOINT">    -1     0     0     0</v>
   <i type="logical" name="LTCTE"> F  </i>
   <i type="logical" name="LTETE"> F  </i>
   <i type="logical" name="LTRIPLET"> F  </i>
   <i type="logical" name="LFXCEPS"> F  </i>
   <i type="logical" name="LFXHEG"> F  </i>
   <i type="int" name="NATURALO">     0</i>
   <i type="logical" name="L2ORDER"> F  </i>
   <i type="logical" name="LUSEW"> F  </i>
   <i name="ENCUTGW">     -2.00000000</i>
   <i name="ENCUTGWSOFT">     -2.00000000</i>
   <i name="ENCUTLF">     -1.00000000</i>
   <i type="int" name="LMAXMP2">    -1</i>
   <i name="SCISSOR">      0.00000000</i>
   <i type="int" name="NOMEGA">     0</i>
   <i type="int" name="NOMEGAR">     0</i>
   <i type="int" name="NBANDSGW">    -1</i>
   <i type="int" name="NBANDSO">    -1</i>
   <i type="int" name="NBANDSV">    -1</i>
   <i type="int" name="NELM">     1</i>
   <i type="int" name="NELMHF">     1</i>
   <i type="int" name="DIM">     3</i>
   <i type="int" name="ANTIRES">     0</i>
   <i name="OMEGAMAX">    -30.00000000</i>
   <i name="OMEGAMIN">    -30.00000000</i>
   <i name="OMEGATL">   -200.00000000</i>
   <i type="int" name="OMEGAGRID">     0</i>
   <i name="CSHIFT">     -0.10000000</i>
   <i type="logical" name="SELFENERGY"> F  </i>
   <i type="logical" name="LSPECTRAL"> F  </i>
   <i type="logical" name="LSPECTRALGW"> F  </i>
   <i type="logical" name="LSINGLES"> F  </i>
   <i type="logical" name="LFERMIGW"> F  </i>
   <i type="logical" name="ODDONLYGW"> F  </i>
   <i type="logical" name="EVENONLYGW"> F  </i>
   <i type="int" name="NKREDLFX">     1</i>
   <i type="int" name="NKREDLFY">     1</i>
   <i type="int" name="NKREDLFZ">     1</i>
   <i type="int" name="MAXMEM">  1800</i>
   <i type="int" name="TELESCOPE">     0</i>
   <i type="int" name="TAUPAR">     1</i>
   <i type="int" name="OMEGAPAR">    -1</i>
   <i name="LAMBDA">      1.00000000</i>
  </separator>
  <separator name="External order field" >
   <i name="OFIELD_KAPPA">      0.00000000</i>
   <v name="OFIELD_K">      0.00000000      0.00000000      0.00000000</v>
   <i name="OFIELD_Q6_NEAR">      0.00000000</i>
   <i name="OFIELD_Q6_FAR">      0.00000000</i>
   <i name="OFIELD_A">      0.00000000</i>
  </separator>
 </parameters>
 <atominfo>
  <atoms>      64 </atoms>
  <types>       1 </types>
  <array name="atoms" >
   <dimension dim="1">ion</dimension>
   <field type="string">element</field>
   <field type="int">atomtype</field>
   <set>
    <rc><c>Si</c><c>   1</c></rc>
    <rc><c>Si</c><c>   1</c></rc>
    <rc><c>Si</c><c>   1</c></rc>
    <rc><c>Si</c><c>   1</c></rc>
    <rc><c>Si</c><c>   1</c></rc>
    <rc><c>Si</c><c>   1</c></rc>
    <rc><c>Si</c><c>   1</c></rc>
    <rc><c>Si</c><c>   1</c></rc>
    <rc><c>Si</c><c>   1</c></rc>
    <rc><c>Si</c><c>   1</c></rc>
    <rc><c>Si</c><c>   1</c></rc>
    <rc><c>Si</c><c>   1</c></rc>
    <rc><c>Si</c><c>   1</c></rc>
    <rc><c>Si</c><c>   1</c></rc>
    <rc><c>Si</c><c>   1</c></rc>
    <rc><c>Si</c><c>   1</c></rc>
    <rc><c>Si</c><c>   1</c></rc>
    <rc><c>Si</c><c>   1</c></rc>
    <rc><c>Si</c><c>   1</c></rc>
    <rc><c>Si</c><c>   1</c></rc>
    <rc><c>Si</c><c>   1</c></rc>
    <rc><c>Si</c><c>   1</c></rc>
    <rc><c>Si</c><c>   1</c></rc>
    <rc><c>Si</c><c>   1</c></rc>
    <rc><c>Si</c><c>   1</c></rc>
    <rc><c>Si</c><c>   1</c></rc>
    <rc><c>Si</c><c>   1</c></rc>
    <rc><c>Si</c><c>   1</c></rc>
    <rc><c>Si</c><c>   1</c></rc>
    <rc><c>Si</c><c>   1</c></rc>
    <rc><c>Si</c><c>   1</c></rc>
    <rc><c>Si</c><c>   1</c></rc>
    <rc><c>Si</c><c>   1</c></rc>
    <rc><c>Si</c><c>   1</c></rc>
    <rc><c>Si</c><c>   1</c></rc>
    <rc><c>Si</c><c>   1</c></rc>
    <rc><c>Si</c><c>   1</c></rc>
    <rc><c>Si</c><c>   1</c></rc>
    <rc><c>Si</c><c>   1</c></rc>
    <rc><c>Si</c><c>   1</c></rc>
    <rc><c>Si</c><c>   1</c></rc>
    <rc><c>Si</c><c>   1</c></rc>
    <rc><c>Si</c><c>   1</c></rc>
    <rc><c>Si</c><c>   1</c></rc>
    <rc><c>Si</c><c>   1</c></rc>
    <rc><c>Si</c><c>   1</c></rc>
    <rc><c>Si</c><c>   1</c></rc>
    <rc><c>Si</c><c>   1</c></rc>
    <rc><c>Si</c><c>   1</c></rc>
    <rc><c>Si</c><c>   1</c></rc>
    <rc><c>Si</c><c>   1</c></rc>
    <rc><c>Si</c><c>   1</c></rc>
    <rc><c>Si</c><c>   1</c></rc>
    <rc><c>Si</c><c>   1</c></rc>
    <rc><c>Si</c><c>   1</c></rc>
    <rc><c>Si</c><c>   1</c></rc>
    <rc><c>Si</c><c>   1</c></rc>
    <rc><c>Si</c><c>   1</c></rc>
    <rc><c>Si</c><c>   1</c></rc>
    <rc><c>Si</c><c>   1</c></rc>
    <rc><c>Si</c><c>   1</c></rc>
    <rc><c>Si</c><c>   1</c></rc>
    <rc><c>Si</c><c>   1</c></rc>
    <rc><c>Si</c><c>   1</c></rc>
   </set>
  </array>
  <array name="atomtypes" >
   <dimension dim="1">type</dimension>
   <field type="int">atomspertype</field>
   <field type="string">element</field>
   <field>mass</field>
   <field>valence</field>
   <field type="string">pseudopotential</field>
   <set>
    <rc><c>  64</c><c>Si</c><c>     28.08500000</c><c>      4.00000000</c><c>  PAW_PBE Si 05Jan2001                  </c></rc>
   </set>
  </array>
 </atominfo>
 <structure name="initialpos" >
  <crystal>
   <varray name="basis" >
    <v>      10.93252578       0.00000000       0.00000000 </v>
    <v>       0.00000000      10.93252578       0.00000000 </v>
    <v>       0.00000000       0.00000000      10.93252578 </v>
   </varray>
   <i name="volume">   1306.65679237 </i>
   <varray name="rec_basis" >
    <v>       0.09147017       0.00000000       0.00000000 </v>
    <v>       0.00000000       0.09147017       0.00000000 </v>
    <v>       0.00000000       0.00000000       0.09147017 </v>
   </varray>
  </crystal>
  <varray name="positions" >
   <v>       0.44024411       0.43750000       0.43750000 </v>
   <v>       0.93750000       0.43750000       0.43750000 </v>
   <v>       0.43750000       0.93750000       0.43750000 </v>
   <v>       0.93750000       0.93750000       0.43750000 </v>
   <v>       0.43750000       0.43750000       0.93750000 </v>
   <v>       0.93750000       0.43750000       0.93750000 </v>
   <v>       0.43750000       0.93750000       0.93750000 </v>
   <v>       0.93750000       0.93750000       0.93750000 </v>
   <v>       0.43750000       0.18750000       0.18750000 </v>
   <v>       0.93750000       0.18750000       0.18750000 </v>
   <v>       0.43750000       0.68750000       0.18750000 </v>
   <v>       0.93750000       0.68750000       0.18750000 </v>
   <v>       0.43750000       0.18750000       0.68750000 </v>
   <v>       0.93750000       0.18750000       0.68750000 </v>
   <v>       0.43750000       0.68750000       0.68750000 </v>
   <v>       0.93750000       0.68750000       0.68750000 </v>
   <v>       0.18750000       0.43750000       0.18750000 </v>
   <v>       0.68750000       0.43750000       0.18750000 </v>
   <v>       0.18750000       0.93750000       0.18750000 </v>
   <v>       0.68750000       0.93750000       0.18750000 </v>
   <v>       0.18750000       0.43750000       0.68750000 </v>
   <v>       0.68750000       0.43750000       0.68750000 </v>
   <v>       0.18750000       0.93750000       0.68750000 </v>
   <v>       0.68750000       0.93750000       0.68750000 </v>
   <v>       0.18750000       0.18750000       0.43750000 </v>
   <v>       0.68750000       0.18750000       0.43750000 </v>
   <v>       0.18750000       0.68750000       0.43750000 </v>
   <v>       0.68750000       0.68750000       0.43750000 </v>
   <v>       0.18750000       0.18750000       0.93750000 </v>
   <v>       0.68750000       0.18750000       0.93750000 </v>
   <v>       0.18750000       0.68750000       0.93750000 </v>
   <v>       0.68750000       0.68750000       0.93750000 </v>
   <v>       0.06524411       0.06250000       0.06250000 </v>
   <v>       0.56250000       0.06250000       0.06250000 </v>
   <v>       0.06250000       0.56250000       0.06250000 </v>
   <v>       0.56250000       0.56250000       0.06250000 </v>
   <v>       0.06250000       0.06250000       0.56250000 </v>
   <v>       0.56250000       0.06250000       0.56250000 </v>
   <v>       0.06250000       0.56250000       0.56250000 </v>
   <v>       0.56250000       0.56250000       0.56250000 </v>
   <v>       0.06250000       0.31250000       0.31250000 </v>
   <v>       0.56250000       0.31250000       0.31250000 </v>
   <v>       0.06250000       0.81250000       0.31250000 </v>
   <v>       0.56250000       0.81250000       0.31250000 </v>
   <v>       0.06250000       0.31250000       0.81250000 </v>
   <v>       0.56250000       0.31250000       0.81250000 </v>
   <v>       0.06250000       0.81250000       0.81250000 </v>
   <v>       0.56250000       0.81250000       0.81250000 </v>
   <v>       0.31250000       0.06250000       0.31250000 </v>
   <v>       0.81250000       0.06250000       0.31250000 </v>
   <v>       0.31250000       0.56250000       0.31250000 </v>
   <v>       0.81250000       0.56250000       0.31250000 </v>
   <v>       0.31250000       0.06250000       0.81250000 </v>
   <v>       0.81250000       0.06250000       0.81250000 </v>
   <v>       0.31250000       0.56250000       0.81250000 </v>
   <v>       0.81250000       0.56250000       0.81250000 </v>
   <v>       0.31250000       0.31250000       0.06250000 </v>
   <v>       0.81250000       0.31250000       0.06250000 </v>
   <v>       0.31250000       0.81250000       0.06250000 </v>
   <v>       0.81250000       0.81250000       0.06250000 </v>
   <v>       0.31250000       0.31250000       0.56250000 </v>
   <v>       0.81250000       0.31250000       0.56250000 </v>
   <v>       0.31250000       0.81250000       0.56250000 </v>
   <v>       0.81250000       0.81250000       0.56250000 </v>
  </varray>
 </structure>
 <calculation>
  <scstep>
   <time name="dav">    3.40    3.41</time>
   <time name="total">    3.61    3.62</time>
   <energy>
    <i name="alphaZ">    105.52440745 </i>
    <i name="ewald">  -7265.47190282 </i>
    <i name="hartreedc">   -361.71174364 </i>
    <i name="XCdc">   -597.75714169 </i>
    <i name="pawpsdc">   5639.92317535 </i>
    <i name="pawaedc">  -4513.95313856 </i>
    <i name="eentropy">     -0.00017488 </i>
    <i name="bandstr">    856.58357583 </i>
    <i name="atom">   6596.14994790 </i>
    <i name="e_fr_energy">    459.28700494 </i>
    <i name="e_wo_entrp">    459.28717982 </i>
    <i name="e_0_energy">    459.28709238 </i>
   </energy>
  </scstep>
  <scstep>
   <time name="dav">    3.90    3.90</time>
   <time name="total">    3.90    3.91</time>
   <energy>
    <i name="e_fr_energy">   -299.95930603 </i>
    <i name="e_wo_entrp">   -299.95930603 </i>
    <i name="e_0_energy">   -299.95930603 </i>
   </energy>
  </scstep>
  <scstep>
   <time name="dav">    3.94    3.95</time>
   <time name="total">    3.95    3.95</time>
   <energy>
    <i name="e_fr_energy">   -350.82536380 </i>
    <i name="e_wo_entrp">   -350.82536380 </i>
    <i name="e_0_energy">   -350.82536380 </i>
   </energy>
  </scstep>
  <scstep>
   <time name="dav">    3.93    3.93</time>
   <time name="total">    3.93    3.94</time>
   <energy>
    <i name="e_fr_energy">   -352.26663942 </i>
    <i name="e_wo_entrp">   -352.26663942 </i>
    <i name="e_0_energy">   -352.26663942 </i>
   </energy>
  </scstep>
  <scstep>
   <time name="dav">    3.88    3.88</time>
   <time name="total">    4.12    4.15</time>
   <energy>
    <i name="e_fr_energy">   -352.31269979 </i>
    <i name="e_wo_entrp">   -352.31269979 </i>
    <i name="e_0_energy">   -352.31269979 </i>
   </energy>
  </scstep>
  <scstep>
   <time name="dav">    3.79    3.79</time>
   <time name="total">    4.23    4.24</time>
   <energy>
    <i name="e_fr_energy">   -348.58449360 </i>
    <i name="e_wo_entrp">   -348.58449360 </i>
    <i name="e_0_energy">   -348.58449360 </i>
   </energy>
  </scstep>
  <scstep>
   <time name="dav">    3.70    3.71</time>
   <time name="total">    4.15    4.15</time>
   <energy>
    <i name="e_fr_energy">   -346.87194368 </i>
    <i name="e_wo_entrp">   -346.87194368 </i>
    <i name="e_0_energy">   -346.87194368 </i>
   </energy>
  </scstep>
  <scstep>
   <time name="dav">    3.88    3.89</time>
   <time name="total">    4.33    4.34</time>
   <energy>
    <i name="e_fr_energy">   -346.89807029 </i>
    <i name="e_wo_entrp">   -346.89807029 </i>
    <i name="e_0_energy">   -346.89807029 </i>
   </energy>
  </scstep>
  <scstep>
   <time name="dav">    4.06    4.06</time>
   <time name="total">    4.50    4.51</time>
   <energy>
    <i name="e_fr_energy">   -346.90486624 </i>
    <i name="e_wo_entrp">   -346.90486624 </i>
    <i name="e_0_energy">   -346.90486624 </i>
   </energy>
  </scstep>
  <scstep>
   <time name="dav">    3.68    3.69</time>
   <time name="total">    4.13    4.13</time>
   <energy>
    <i name="e_fr_energy">   -346.90690636 </i>
    <i name="e_wo_entrp">   -346.90690636 </i>
    <i name="e_0_energy">   -346.90690636 </i>
   </energy>
  </scstep>
  <scstep>
   <time name="dav">    3.89    3.90</time>
   <time name="total">    4.34    4.35</time>
   <energy>
    <i name="e_fr_energy">   -346.90688158 </i>
    <i name="e_wo_entrp">   -346.90688158 </i>
    <i name="e_0_energy">   -346.90688158 </i>
   </energy>
  </scstep>
  <scstep>
   <time name="dav">    3.92    3.92</time>
   <time name="total">    4.36    4.37</time>
   <energy>
    <i name="e_fr_energy">   -346.90689633 </i>
    <i name="e_wo_entrp">   -346.90689633 </i>
    <i name="e_0_energy">   -346.90689633 </i>
   </energy>
  </scstep>
  <scstep>
   <time name="dav">    3.82    3.82</time>
   <time name="total">    4.26    4.27</time>
   <energy>
    <i name="e_fr_energy">   -346.90689694 </i>
    <i name="e_wo_entrp">   -346.90689694 </i>
    <i name="e_0_energy">   -346.90689694 </i>
   </energy>
  </scstep>
  <scstep>
   <time name="dav">    3.96    3.96</time>
   <time name="total">    4.40    4.41</time>
   <energy>
    <i name="e_fr_energy">   -346.90689759 </i>
    <i name="e_wo_entrp">   -346.90689759 </i>
    <i name="e_0_energy">   -346.90689759 </i>
   </energy>
  </scstep>
  <scstep>
   <time name="dav">    3.30    3.30</time>
   <time name="total">    3.76    3.77</time>
   <energy>
    <i name="e_fr_energy">   -346.90689736 </i>
    <i name="e_wo_entrp">   -346.90689736 </i>
    <i name="e_0_energy">   -346.90689736 </i>
   </energy>
  </scstep>
  <scstep>
   <time name="dav">    2.68    2.68</time>
   <time name="total">    3.12    3.14</time>
   <energy>
    <i name="e_fr_energy">   -346.90689743 </i>
    <i name="e_wo_entrp">   -346.90689743 </i>
    <i name="e_0_energy">   -346.90689743 </i>
   </energy>
  </scstep>
  <scstep>
   <time name="dav">    2.61    2.62</time>
   <time name="total">    3.06    3.07</time>
   <energy>
    <i name="e_fr_energy">   -346.90689742 </i>
    <i name="e_wo_entrp">   -346.90689742 </i>
    <i name="e_0_energy">   -346.90689742 </i>
   </energy>
  </scstep>
  <scstep>
   <time name="dav">    2.63    2.63</time>
   <time name="total">    3.07    3.08</time>
   <energy>
    <i name="e_fr_energy">   -346.90689743 </i>
    <i name="e_wo_entrp">   -346.90689743 </i>
    <i name="e_0_energy">   -346.90689743 </i>
   </energy>
  </scstep>
  <scstep>
   <time name="dav">    2.62    2.62</time>
   <time name="total">    2.81    2.82</time>
   <energy>
    <i name="alphaZ">    105.52440745 </i>
    <i name="ewald">  -7265.47190282 </i>
    <i name="hartreedc">   -485.14261485 </i>
    <i name="XCdc">   -577.61228788 </i>
    <i name="pawpsdc">  27883.43736120 </i>
    <i name="pawaedc"> -26764.15529003 </i>
    <i name="eentropy">      0.00000000 </i>
    <i name="bandstr">    160.36348160 </i>
    <i name="atom">   6596.14994790 </i>
    <i name="e_fr_energy">   -346.90689743 </i>
    <i name="e_wo_entrp">   -346.90689743 </i>
    <i name="e_0_energy">   -346.90689743 </i>
   </energy>
  </scstep>
  <structure>
   <crystal>
    <varray name="basis" >
     <v>      10.93252578       0.00000000       0.00000000 </v>
     <v>       0.00000000      10.93252578       0.00000000 </v>
     <v>       0.00000000       0.00000000      10.93252578 </v>
    </varray>
    <i name="volume">   1306.65679237 </i>
    <varray name="rec_basis" >
     <v>       0.09147017       0.00000000       0.00000000 </v>
     <v>       0.00000000       0.09147017       0.00000000 </v>
     <v>       0.00000000       0.00000000       0.09147017 </v>
    </varray>
   </crystal>
   <varray name="positions" >
    <v>       0.44024411       0.43750000       0.43750000 </v>
    <v>       0.93750000       0.43750000       0.43750000 </v>
    <v>       0.43750000       0.93750000       0.43750000 </v>
    <v>       0.93750000       0.93750000       0.43750000 </v>
    <v>       0.43750000       0.43750000       0.93750000 </v>
    <v>       0.93750000       0.43750000       0.93750000 </v>
    <v>       0.43750000       0.93750000       0.93750000 </v>
    <v>       0.93750000       0.93750000       0.93750000 </v>
    <v>       0.43750000       0.18750000       0.18750000 </v>
    <v>       0.93750000       0.18750000       0.18750000 </v>
    <v>       0.43750000       0.68750000       0.18750000 </v>
    <v>       0.93750000       0.68750000       0.18750000 </v>
    <v>       0.43750000       0.18750000       0.68750000 </v>
    <v>       0.93750000       0.18750000       0.68750000 </v>
    <v>       0.43750000       0.68750000       0.68750000 </v>
    <v>       0.93750000       0.68750000       0.68750000 </v>
    <v>       0.18750000       0.43750000       0.18750000 </v>
    <v>       0.68750000       0.43750000       0.18750000 </v>
    <v>       0.18750000       0.93750000       0.18750000 </v>
    <v>       0.68750000       0.93750000       0.18750000 </v>
    <v>       0.18750000       0.43750000       0.68750000 </v>
    <v>       0.68750000       0.43750000       0.68750000 </v>
    <v>       0.18750000       0.93750000       0.68750000 </v>
    <v>       0.68750000       0.93750000       0.68750000 </v>
    <v>       0.18750000       0.18750000       0.43750000 </v>
    <v>       0.68750000       0.18750000       0.43750000 </v>
    <v>       0.18750000       0.68750000       0.43750000 </v>
    <v>       0.68750000       0.68750000       0.43750000 </v>
    <v>       0.18750000       0.18750000       0.93750000 </v>
    <v>       0.68750000       0.18750000       0.93750000 </v>
    <v>       0.18750000       0.68750000       0.93750000 </v>
    <v>       0.68750000       0.68750000       0.93750000 </v>
    <v>       0.06524411       0.06250000       0.06250000 </v>
    <v>       0.56250000       0.06250000       0.06250000 </v>
    <v>       0.06250000       0.56250000       0.06250000 </v>
    <v>       0.56250000       0.56250000       0.06250000 </v>
    <v>       0.06250000       0.06250000       0.56250000 </v>
    <v>       0.56250000       0.06250000       0.56250000 </v>
    <v>       0.06250000       0.56250000       0.56250000 </v>
    <v>       0.56250000       0.56250000       0.56250000 </v>
    <v>       0.06250000       0.31250000       0.31250000 </v>
    <v>       0.56250000       0.31250000       0.31250000 </v>
    <v>       0.06250000       0.81250000       0.31250000 </v>
    <v>       0.56250000       0.81250000       0.31250000 </v>
    <v>       0.06250000       0.31250000       0.81250000 </v>
    <v>       0.56250000       0.31250000       0.81250000 </v>
    <v>       0.06250000       0.81250000       0.81250000 </v>
    <v>       0.56250000       0.81250000       0.81250000 </v>
    <v>       0.31250000       0.06250000       0.31250000 </v>
    <v>       0.81250000       0.06250000       0.31250000 </v>
    <v>       0.31250000       0.56250000       0.31250000 </v>
    <v>       0.81250000       0.56250000       0.31250000 </v>
    <v>       0.31250000       0.06250000       0.81250000 </v>
    <v>       0.81250000       0.06250000       0.81250000 </v>
    <v>       0.31250000       0.56250000       0.81250000 </v>
    <v>       0.81250000       0.56250000       0.81250000 </v>
    <v>       0.31250000       0.31250000       0.06250000 </v>
    <v>       0.81250000       0.31250000       0.06250000 </v>
    <v>       0.31250000       0.81250000       0.06250000 </v>
    <v>       0.81250000       0.81250000       0.06250000 </v>
    <v>       0.31250000       0.31250000       0.56250000 </v>
    <v>       0.81250000       0.31250000       0.56250000 </v>
    <v>       0.31250000       0.81250000       0.56250000 </v>
    <v>       0.81250000       0.81250000       0.56250000 </v>
   </varray>
  </structure>
  <varray name="forces" >
   <v>      -0.38767403       0.00075416       0.00075416 </v>
   <v>       0.00668699       0.00067675       0.00067675 </v>
   <v>       0.00198114       0.00070623       0.00063971 </v>
   <v>      -0.00160720       0.00124661       0.00088701 </v>
   <v>       0.00198114       0.00063971       0.00070623 </v>
   <v>      -0.00160720       0.00088701       0.00124661 </v>
   <v>      -0.01182716       0.00090421       0.00090421 </v>
   <v>       0.09364916       0.06095798       0.06095798 </v>
   <v>      -0.01315445       0.00186984       0.00186984 </v>
   <v>       0.09305028      -0.06072877      -0.06072877 </v>
   <v>      -0.01210961       0.00203251      -0.00337929 </v>
   <v>      -0.00143334      -0.00065487      -0.00148063 </v>
   <v>      -0.01210961      -0.00337929       0.00203251 </v>
   <v>      -0.00143334      -0.00148063      -0.00065487 </v>
   <v>      -0.01341593      -0.00351813      -0.00351813 </v>
   <v>       0.00610897      -0.00090339      -0.00090339 </v>
   <v>       0.00417013      -0.00359678       0.00677526 </v>
   <v>       0.00642340      -0.00337239      -0.00503973 </v>
   <v>       0.09682161      -0.06633968       0.06425289 </v>
   <v>       0.00074529      -0.00113916       0.00275686 </v>
   <v>       0.01185420       0.00199220      -0.00486820 </v>
   <v>       0.00526691       0.00201501       0.00644405 </v>
   <v>      -0.00045824      -0.00098091       0.00278757 </v>
   <v>       0.00163862      -0.00042458      -0.00124539 </v>
   <v>       0.00417013       0.00677526      -0.00359678 </v>
   <v>       0.00642340      -0.00503973      -0.00337239 </v>
   <v>       0.01185420      -0.00486820       0.00199220 </v>
   <v>       0.00526691       0.00644405       0.00201501 </v>
   <v>       0.09682161       0.06425289      -0.06633968 </v>
   <v>       0.00074529       0.00275686      -0.00113916 </v>
   <v>      -0.00045824       0.00278757      -0.00098091 </v>
   <v>       0.00163862      -0.00124539      -0.00042458 </v>
   <v>      -0.38767347       0.00074547       0.00074547 </v>
   <v>       0.00676104       0.00068467       0.00068467 </v>
   <v>       0.00193419       0.00065457       0.00060020 </v>
   <v>      -0.00165340       0.00121167       0.00092673 </v>
   <v>       0.00193419       0.00060020       0.00065457 </v>
   <v>      -0.00165340       0.00092673       0.00121167 </v>
   <v>      -0.01182723       0.00090973       0.00090973 </v>
   <v>       0.09638201       0.06611191       0.06611191 </v>
   <v>      -0.01305582       0.00175354       0.00175354 </v>
   <v>       0.09580123      -0.06588128      -0.06588128 </v>
   <v>      -0.01226757       0.00216499      -0.00341835 </v>
   <v>      -0.00150110      -0.00069912      -0.00143753 </v>
   <v>      -0.01226757      -0.00341835       0.00216499 </v>
   <v>      -0.00150110      -0.00143753      -0.00069912 </v>
   <v>      -0.01331213      -0.00341950      -0.00341950 </v>
   <v>       0.00621387      -0.00091792      -0.00091792 </v>
   <v>       0.00437175      -0.00365836       0.00693339 </v>
   <v>       0.00630687      -0.00330830      -0.00484993 </v>
   <v>       0.09409397      -0.06118963       0.05910844 </v>
   <v>       0.00074011      -0.00113475       0.00276595 </v>
   <v>       0.01194466       0.00208705      -0.00502081 </v>
   <v>       0.00511268       0.00192519       0.00630710 </v>
   <v>      -0.00041174      -0.00101746       0.00273518 </v>
   <v>       0.00167998      -0.00047607      -0.00122366 </v>
   <v>       0.00437175       0.00693339      -0.00365836 </v>
   <v>       0.00630687      -0.00484993      -0.00330830 </v>
   <v>       0.01194466      -0.00502081       0.00208705 </v>
   <v>       0.00511268       0.00630710       0.00192519 </v>
   <v>       0.09409397       0.05910844      -0.06118963 </v>
   <v>       0.00074011       0.00276595      -0.00113475 </v>
   <v>      -0.00041174       0.00273518      -0.00101746 </v>
   <v>       0.00167998      -0.00122366      -0.00047607 </v>
  </varray>
  <varray name="stress" >
   <v>      -0.01751441       0.00002945       0.00002945 </v>
   <v>       0.00002944       0.02081720       0.00012221 </v>
   <v>       0.00002944       0.00012221       0.02081720 </v>
  </varray>
  <energy>
   <i name="e_fr_energy">   -346.90689743 </i>
   <i name="e_wo_entrp">   -346.90689743 </i>
   <i name="e_0_energy">      0.00000000 </i>
  </energy>
  <time name="totalsc">   82.68   83.45</time>
  <eigenvalues>
   <array>
    <dimension dim="1">band</dimension>
    <dimension dim="2">kpoint</dimension>
    <dimension dim="3">spin</dimension>
    <field>eigene</field>
    <field>occ</field>
    <set>
     <set comment="spin 1">
      <set comment="kpoint 1">
       <r>   -5.9932    1.0000 </r>
       <r>   -5.4691    1.0000 </r>
       <r>   -5.4646    1.0000 </r>
       <r>   -5.4605    1.0000 </r>
       <r>   -4.9697    1.0000 </r>
       <r>   -4.9654    1.0000 </r>
       <r>   -4.9615    1.0000 </r>
       <r>   -4.5322    1.0000 </r>
       <r>   -4.4370    1.0000 </r>
       <r>   -4.4324    1.0000 </r>
       <r>   -4.4280    1.0000 </r>
       <r>   -4.0265    1.0000 </r>
       <r>   -4.0185    1.0000 </r>
       <r>   -4.0164    1.0000 </r>
       <r>   -4.0163    1.0000 </r>
       <r>   -4.0142    1.0000 </r>
       <r>   -4.0068    1.0000 </r>
       <r>   -3.8266    1.0000 </r>
       <r>   -3.8244    1.0000 </r>
       <r>   -3.8220    1.0000 </r>
       <r>   -3.3328    1.0000 </r>
       <r>   -3.3283    1.0000 </r>
       <r>   -3.3239    1.0000 </r>
       <r>   -2.9639    1.0000 </r>
       <r>   -2.9591    1.0000 </r>
       <r>   -2.9545    1.0000 </r>
       <r>   -2.7983    1.0000 </r>
       <r>   -2.7935    1.0000 </r>
       <r>   -2.7909    1.0000 </r>
       <r>   -2.7908    1.0000 </r>
       <r>   -2.7884    1.0000 </r>
       <r>   -2.7832    1.0000 </r>
       <r>   -1.2537    1.0000 </r>
       <r>   -1.2521    1.0000 </r>
       <r>   -1.2491    1.0000 </r>
       <r>   -1.2486    1.0000 </r>
       <r>   -1.2454    1.0000 </r>
       <r>   -1.2445    1.0000 </r>
       <r>   -1.1565    1.0000 </r>
       <r>   -1.1512    1.0000 </r>
       <r>   -1.1455    1.0000 </r>
       <r>   -1.0353    1.0000 </r>
       <r>   -1.0328    1.0000 </r>
       <r>   -1.0299    1.0000 </r>
       <r>   -0.9475    1.0000 </r>
       <r>   -0.9468    1.0000 </r>
       <r>   -0.9457    1.0000 </r>
       <r>   -0.2446    1.0000 </r>
       <r>   -0.1670    1.0000 </r>
       <r>   -0.1642    1.0000 </r>
       <r>   -0.1602    1.0000 </r>
       <r>   -0.1600    1.0000 </r>
       <r>   -0.1563    1.0000 </r>
       <r>   -0.1529    1.0000 </r>
       <r>    0.7131    1.0000 </r>
       <r>    0.7143    1.0000 </r>
       <r>    0.7155    1.0000 </r>
       <r>    1.0455    1.0000 </r>
       <r>    1.0470    1.0000 </r>
       <r>    1.0488    1.0000 </r>
       <r>    1.6518    1.0000 </r>
       <r>    1.6560    1.0000 </r>
       <r>    1.6569    1.0000 </r>
       <r>    1.6571    1.0000 </r>
       <r>    1.6578    1.0000 </r>
       <r>    1.6614    1.0000 </r>
       <r>    1.7160    1.0000 </r>
       <r>    1.7160    1.0000 </r>
       <r>    1.7169    1.0000 </r>
       <r>    2.2653    1.0000 </r>
       <r>    2.2678    1.0000 </r>
       <r>    2.2702    1.0000 </r>
       <r>    2.3651    1.0000 </r>
       <r>    2.3693    1.0000 </r>
       <r>    2.3708    1.0000 </r>
       <r>    2.3710    1.0000 </r>
       <r>    2.3713    1.0000 </r>
       <r>    2.3765    1.0000 </r>
       <r>    2.4223    1.0000 </r>
       <r>    2.4260    1.0000 </r>
       <r>    2.4276    1.0000 </r>
       <r>    2.7292    1.0000 </r>
       <r>    2.7344    1.0000 </r>
       <r>    2.7349    1.0000 </r>
       <r>    2.7349    1.0000 </r>
       <r>    2.7354    1.0000 </r>
       <r>    2.7407    1.0000 </r>
       <r>    2.9992    1.0000 </r>
       <r>    2.9994    1.0000 </r>
       <r>    2.9996    1.0000 </r>
       <r>    3.0118    1.0000 </r>
       <r>    3.0133    1.0000 </r>
       <r>    3.0152    1.0000 </r>
       <r>    3.3589    1.0000 </r>
       <r>    3.3621    1.0000 </r>
       <r>    3.3639    1.0000 </r>
       <r>    3.3820    1.0000 </r>
       <r>    3.3843    1.0000 </r>
       <r>    3.3878    1.0000 </r>
       <r>    3.4656    1.0000 </r>
       <r>    3.4666    1.0000 </r>
       <r>    3.4673    1.0000 </r>
       <r>    3.7371    1.0000 </r>
       <r>    3.7396    1.0000 </r>
       <r>    3.7409    1.0000 </r>
       <r>    3.7413    1.0000 </r>
       <r>    3.7427    1.0000 </r>
       <r>    3.7459    1.0000 </r>
       <r>    3.7798    1.0000 </r>
       <r>    3.7812    1.0000 </r>
       <r>    3.7815    1.0000 </r>
       <r>    4.0401    1.0000 </r>
       <r>    4.0976    1.0000 </r>
       <r>    4.0979    1.0000 </r>
       <r>    4.0986    1.0000 </r>
       <r>    4.3400    1.0000 </r>
       <r>    4.3413    1.0000 </r>
       <r>    4.3419    1.0000 </r>
       <r>    4.4051    1.0000 </r>
       <r>    4.4056    1.0000 </r>
       <r>    4.4067    1.0000 </r>
       <r>    4.5629    1.0000 </r>
       <r>    4.5630    1.0000 </r>
       <r>    4.8692    1.0000 </r>
       <r>    4.8702    1.0000 </r>
       <r>    4.8709    1.0000 </r>
       <r>    5.3497    1.0000 </r>
       <r>    5.3498    1.0000 </r>
       <r>    6.5629    0.0000 </r>
       <r>    6.5635    0.0000 </r>
       <r>    6.5638    0.0000 </r>
       <r>    7.0024    0.0000 </r>
       <r>    7.0044    0.0000 </r>
       <r>    7.0064    0.0000 </r>
       <r>    7.2338    0.0000 </r>
       <r>    7.4887    0.0000 </r>
       <r>    7.4908    0.0000 </r>
       <r>    7.4927    0.0000 </r>
       <r>    7.6164    0.0000 </r>
       <r>    7.6197    0.0000 </r>
       <r>    7.6225    0.0000 </r>
       <r>    7.7762    0.0000 </r>
       <r>    7.7799    0.0000 </r>
       <r>    7.7830    0.0000 </r>
       <r>    7.8009    0.0000 </r>
       <r>    7.8011    0.0000 </r>
       <r>    7.8017    0.0000 </r>
       <r>    8.0251    0.0000 </r>
       <r>    8.0280    0.0000 </r>
       <r>    8.0305    0.0000 </r>
       <r>    8.0307    0.0000 </r>
       <r>    8.0333    0.0000 </r>
       <r>    8.0351    0.0000 </r>
       <r>    8.0816    0.0000 </r>
       <r>    8.2933    0.0000 </r>
       <r>    8.2950    0.0000 </r>
       <r>    8.2967    0.0000 </r>
       <r>    8.4944    0.0000 </r>
       <r>    8.5015    0.0000 </r>
       <r>    8.5019    0.0000 </r>
       <r>    8.5031    0.0000 </r>
       <r>    8.5102    0.0000 </r>
       <r>    8.5185    0.0000 </r>
       <r>    8.5479    0.0000 </r>
      </set>
      <set comment="kpoint 2">
       <r>   -5.9932    1.0000 </r>
       <r>   -5.4678    1.0000 </r>
       <r>   -5.4646    1.0000 </r>
       <r>   -5.4619    1.0000 </r>
       <r>   -4.9686    1.0000 </r>
       <r>   -4.9654    1.0000 </r>
       <r>   -4.9625    1.0000 </r>
       <r>   -4.5323    1.0000 </r>
       <r>   -4.4359    1.0000 </r>
       <r>   -4.4324    1.0000 </r>
       <r>   -4.4290    1.0000 </r>
       <r>   -4.0190    1.0000 </r>
       <r>   -4.0187    1.0000 </r>
       <r>   -4.0165    1.0000 </r>
       <r>   -4.0163    1.0000 </r>
       <r>   -4.0145    1.0000 </r>
       <r>   -4.0141    1.0000 </r>
       <r>   -3.8244    1.0000 </r>
       <r>   -3.8243    1.0000 </r>
       <r>   -3.8240    1.0000 </r>
       <r>   -3.3334    1.0000 </r>
       <r>   -3.3283    1.0000 </r>
       <r>   -3.3233    1.0000 </r>
       <r>   -2.9597    1.0000 </r>
       <r>   -2.9592    1.0000 </r>
       <r>   -2.9590    1.0000 </r>
       <r>   -2.7937    1.0000 </r>
       <r>   -2.7917    1.0000 </r>
       <r>   -2.7909    1.0000 </r>
       <r>   -2.7909    1.0000 </r>
       <r>   -2.7894    1.0000 </r>
       <r>   -2.7882    1.0000 </r>
       <r>   -1.2523    1.0000 </r>
       <r>   -1.2503    1.0000 </r>
       <r>   -1.2492    1.0000 </r>
       <r>   -1.2486    1.0000 </r>
       <r>   -1.2480    1.0000 </r>
       <r>   -1.2452    1.0000 </r>
       <r>   -1.1512    1.0000 </r>
       <r>   -1.1510    1.0000 </r>
       <r>   -1.1505    1.0000 </r>
       <r>   -1.0328    1.0000 </r>
       <r>   -1.0328    1.0000 </r>
       <r>   -1.0325    1.0000 </r>
       <r>   -0.9506    1.0000 </r>
       <r>   -0.9469    1.0000 </r>
       <r>   -0.9427    1.0000 </r>
       <r>   -0.2445    1.0000 </r>
       <r>   -0.1646    1.0000 </r>
       <r>   -0.1629    1.0000 </r>
       <r>   -0.1602    1.0000 </r>
       <r>   -0.1601    1.0000 </r>
       <r>   -0.1571    1.0000 </r>
       <r>   -0.1558    1.0000 </r>
       <r>    0.7116    1.0000 </r>
       <r>    0.7142    1.0000 </r>
       <r>    0.7171    1.0000 </r>
       <r>    1.0448    1.0000 </r>
       <r>    1.0470    1.0000 </r>
       <r>    1.0494    1.0000 </r>
       <r>    1.6539    1.0000 </r>
       <r>    1.6552    1.0000 </r>
       <r>    1.6569    1.0000 </r>
       <r>    1.6571    1.0000 </r>
       <r>    1.6588    1.0000 </r>
       <r>    1.6598    1.0000 </r>
       <r>    1.7137    1.0000 </r>
       <r>    1.7158    1.0000 </r>
       <r>    1.7186    1.0000 </r>
       <r>    2.2661    1.0000 </r>
       <r>    2.2678    1.0000 </r>
       <r>    2.2691    1.0000 </r>
       <r>    2.3665    1.0000 </r>
       <r>    2.3665    1.0000 </r>
       <r>    2.3710    1.0000 </r>
       <r>    2.3710    1.0000 </r>
       <r>    2.3752    1.0000 </r>
       <r>    2.3754    1.0000 </r>
       <r>    2.4241    1.0000 </r>
       <r>    2.4247    1.0000 </r>
       <r>    2.4260    1.0000 </r>
       <r>    2.7309    1.0000 </r>
       <r>    2.7339    1.0000 </r>
       <r>    2.7348    1.0000 </r>
       <r>    2.7349    1.0000 </r>
       <r>    2.7359    1.0000 </r>
       <r>    2.7389    1.0000 </r>
       <r>    2.9974    1.0000 </r>
       <r>    2.9993    1.0000 </r>
       <r>    3.0009    1.0000 </r>
       <r>    3.0111    1.0000 </r>
       <r>    3.0138    1.0000 </r>
       <r>    3.0157    1.0000 </r>
       <r>    3.3602    1.0000 </r>
       <r>    3.3620    1.0000 </r>
       <r>    3.3629    1.0000 </r>
       <r>    3.3827    1.0000 </r>
       <r>    3.3843    1.0000 </r>
       <r>    3.3867    1.0000 </r>
       <r>    3.4644    1.0000 </r>
       <r>    3.4667    1.0000 </r>
       <r>    3.4688    1.0000 </r>
       <r>    3.7373    1.0000 </r>
       <r>    3.7400    1.0000 </r>
       <r>    3.7411    1.0000 </r>
       <r>    3.7414    1.0000 </r>
       <r>    3.7426    1.0000 </r>
       <r>    3.7456    1.0000 </r>
       <r>    3.7781    1.0000 </r>
       <r>    3.7809    1.0000 </r>
       <r>    3.7829    1.0000 </r>
       <r>    4.0402    1.0000 </r>
       <r>    4.0950    1.0000 </r>
       <r>    4.0987    1.0000 </r>
       <r>    4.1005    1.0000 </r>
       <r>    4.3384    1.0000 </r>
       <r>    4.3412    1.0000 </r>
       <r>    4.3439    1.0000 </r>
       <r>    4.4020    1.0000 </r>
       <r>    4.4056    1.0000 </r>
       <r>    4.4099    1.0000 </r>
       <r>    4.5627    1.0000 </r>
       <r>    4.5629    1.0000 </r>
       <r>    4.8665    1.0000 </r>
       <r>    4.8702    1.0000 </r>
       <r>    4.8735    1.0000 </r>
       <r>    5.3497    1.0000 </r>
       <r>    5.3498    1.0000 </r>
       <r>    6.5628    0.0000 </r>
       <r>    6.5634    0.0000 </r>
       <r>    6.5639    0.0000 </r>
       <r>    7.0036    0.0000 </r>
       <r>    7.0045    0.0000 </r>
       <r>    7.0052    0.0000 </r>
       <r>    7.2337    0.0000 </r>
       <r>    7.4904    0.0000 </r>
       <r>    7.4907    0.0000 </r>
       <r>    7.4908    0.0000 </r>
       <r>    7.6193    0.0000 </r>
       <r>    7.6196    0.0000 </r>
       <r>    7.6198    0.0000 </r>
       <r>    7.7777    0.0000 </r>
       <r>    7.7800    0.0000 </r>
       <r>    7.7819    0.0000 </r>
       <r>    7.7986    0.0000 </r>
       <r>    7.8009    0.0000 </r>
       <r>    7.8040    0.0000 </r>
       <r>    8.0272    0.0000 </r>
       <r>    8.0295    0.0000 </r>
       <r>    8.0301    0.0000 </r>
       <r>    8.0307    0.0000 </r>
       <r>    8.0319    0.0000 </r>
       <r>    8.0338    0.0000 </r>
       <r>    8.0812    0.0000 </r>
       <r>    8.2947    0.0000 </r>
       <r>    8.2951    0.0000 </r>
       <r>    8.2954    0.0000 </r>
       <r>    8.4960    0.0000 </r>
       <r>    8.5011    0.0000 </r>
       <r>    8.5017    0.0000 </r>
       <r>    8.5039    0.0000 </r>
       <r>    8.5099    0.0000 </r>
       <r>    8.5231    0.0000 </r>
       <r>    8.5412    0.0000 </r>
      </set>
      <set comment="kpoint 3">
       <r>   -5.9932    1.0000 </r>
       <r>   -5.4687    1.0000 </r>
       <r>   -5.4647    1.0000 </r>
       <r>   -5.4609    1.0000 </r>
       <r>   -4.9693    1.0000 </r>
       <r>   -4.9655    1.0000 </r>
       <r>   -4.9618    1.0000 </r>
       <r>   -4.5322    1.0000 </r>
       <r>   -4.4364    1.0000 </r>
       <r>   -4.4324    1.0000 </r>
       <r>   -4.4286    1.0000 </r>
       <r>   -4.0250    1.0000 </r>
       <r>   -4.0186    1.0000 </r>
       <r>   -4.0164    1.0000 </r>
       <r>   -4.0163    1.0000 </r>
       <r>   -4.0142    1.0000 </r>
       <r>   -4.0081    1.0000 </r>
       <r>   -3.8293    1.0000 </r>
       <r>   -3.8244    1.0000 </r>
       <r>   -3.8194    1.0000 </r>
       <r>   -3.3317    1.0000 </r>
       <r>   -3.3284    1.0000 </r>
       <r>   -3.3250    1.0000 </r>
       <r>   -2.9640    1.0000 </r>
       <r>   -2.9592    1.0000 </r>
       <r>   -2.9543    1.0000 </r>
       <r>   -2.7992    1.0000 </r>
       <r>   -2.7926    1.0000 </r>
       <r>   -2.7911    1.0000 </r>
       <r>   -2.7907    1.0000 </r>
       <r>   -2.7889    1.0000 </r>
       <r>   -2.7825    1.0000 </r>
       <r>   -1.2563    1.0000 </r>
       <r>   -1.2509    1.0000 </r>
       <r>   -1.2487    1.0000 </r>
       <r>   -1.2486    1.0000 </r>
       <r>   -1.2472    1.0000 </r>
       <r>   -1.2416    1.0000 </r>
       <r>   -1.1555    1.0000 </r>
       <r>   -1.1511    1.0000 </r>
       <r>   -1.1467    1.0000 </r>
       <r>   -1.0360    1.0000 </r>
       <r>   -1.0328    1.0000 </r>
       <r>   -1.0293    1.0000 </r>
       <r>   -0.9520    1.0000 </r>
       <r>   -0.9468    1.0000 </r>
       <r>   -0.9412    1.0000 </r>
       <r>   -0.2446    1.0000 </r>
       <r>   -0.1673    1.0000 </r>
       <r>   -0.1616    1.0000 </r>
       <r>   -0.1605    1.0000 </r>
       <r>   -0.1598    1.0000 </r>
       <r>   -0.1584    1.0000 </r>
       <r>   -0.1530    1.0000 </r>
       <r>    0.7096    1.0000 </r>
       <r>    0.7144    1.0000 </r>
       <r>    0.7189    1.0000 </r>
       <r>    1.0456    1.0000 </r>
       <r>    1.0471    1.0000 </r>
       <r>    1.0485    1.0000 </r>
       <r>    1.6528    1.0000 </r>
       <r>    1.6542    1.0000 </r>
       <r>    1.6568    1.0000 </r>
       <r>    1.6573    1.0000 </r>
       <r>    1.6595    1.0000 </r>
       <r>    1.6605    1.0000 </r>
       <r>    1.7148    1.0000 </r>
       <r>    1.7163    1.0000 </r>
       <r>    1.7178    1.0000 </r>
       <r>    2.2655    1.0000 </r>
       <r>    2.2677    1.0000 </r>
       <r>    2.2699    1.0000 </r>
       <r>    2.3663    1.0000 </r>
       <r>    2.3688    1.0000 </r>
       <r>    2.3705    1.0000 </r>
       <r>    2.3711    1.0000 </r>
       <r>    2.3726    1.0000 </r>
       <r>    2.3745    1.0000 </r>
       <r>    2.4221    1.0000 </r>
       <r>    2.4256    1.0000 </r>
       <r>    2.4285    1.0000 </r>
       <r>    2.7298    1.0000 </r>
       <r>    2.7326    1.0000 </r>
       <r>    2.7343    1.0000 </r>
       <r>    2.7356    1.0000 </r>
       <r>    2.7374    1.0000 </r>
       <r>    2.7400    1.0000 </r>
       <r>    2.9970    1.0000 </r>
       <r>    2.9992    1.0000 </r>
       <r>    3.0008    1.0000 </r>
       <r>    3.0123    1.0000 </r>
       <r>    3.0140    1.0000 </r>
       <r>    3.0149    1.0000 </r>
       <r>    3.3583    1.0000 </r>
       <r>    3.3620    1.0000 </r>
       <r>    3.3651    1.0000 </r>
       <r>    3.3798    1.0000 </r>
       <r>    3.3845    1.0000 </r>
       <r>    3.3893    1.0000 </r>
       <r>    3.4648    1.0000 </r>
       <r>    3.4665    1.0000 </r>
       <r>    3.4685    1.0000 </r>
       <r>    3.7326    1.0000 </r>
       <r>    3.7387    1.0000 </r>
       <r>    3.7411    1.0000 </r>
       <r>    3.7415    1.0000 </r>
       <r>    3.7438    1.0000 </r>
       <r>    3.7498    1.0000 </r>
       <r>    3.7787    1.0000 </r>
       <r>    3.7805    1.0000 </r>
       <r>    3.7831    1.0000 </r>
       <r>    4.0404    1.0000 </r>
       <r>    4.0957    1.0000 </r>
       <r>    4.0980    1.0000 </r>
       <r>    4.1004    1.0000 </r>
       <r>    4.3391    1.0000 </r>
       <r>    4.3409    1.0000 </r>
       <r>    4.3430    1.0000 </r>
       <r>    4.4018    1.0000 </r>
       <r>    4.4056    1.0000 </r>
       <r>    4.4102    1.0000 </r>
       <r>    4.5625    1.0000 </r>
       <r>    4.5629    1.0000 </r>
       <r>    4.8676    1.0000 </r>
       <r>    4.8700    1.0000 </r>
       <r>    4.8729    1.0000 </r>
       <r>    5.3497    1.0000 </r>
       <r>    5.3498    1.0000 </r>
       <r>    6.5596    0.0000 </r>
       <r>    6.5634    0.0000 </r>
       <r>    6.5671    0.0000 </r>
       <r>    7.0000    0.0000 </r>
       <r>    7.0045    0.0000 </r>
       <r>    7.0088    0.0000 </r>
       <r>    7.2337    0.0000 </r>
       <r>    7.4871    0.0000 </r>
       <r>    7.4908    0.0000 </r>
       <r>    7.4943    0.0000 </r>
       <r>    7.6150    0.0000 </r>
       <r>    7.6194    0.0000 </r>
       <r>    7.6239    0.0000 </r>
       <r>    7.7760    0.0000 </r>
       <r>    7.7800    0.0000 </r>
       <r>    7.7831    0.0000 </r>
       <r>    7.7982    0.0000 </r>
       <r>    7.8013    0.0000 </r>
       <r>    7.8046    0.0000 </r>
       <r>    8.0239    0.0000 </r>
       <r>    8.0267    0.0000 </r>
       <r>    8.0305    0.0000 </r>
       <r>    8.0307    0.0000 </r>
       <r>    8.0344    0.0000 </r>
       <r>    8.0368    0.0000 </r>
       <r>    8.0816    0.0000 </r>
       <r>    8.2922    0.0000 </r>
       <r>    8.2951    0.0000 </r>
       <r>    8.2977    0.0000 </r>
       <r>    8.4943    0.0000 </r>
       <r>    8.4988    0.0000 </r>
       <r>    8.5019    0.0000 </r>
       <r>    8.5056    0.0000 </r>
       <r>    8.5087    0.0000 </r>
       <r>    8.5157    0.0000 </r>
       <r>    8.5405    0.0000 </r>
      </set>
     </set>
    </set>
   </array>
  </eigenvalues>
  <separator name="orbital magnetization" >
   <v name="MAGDIPOLOUT">      0.00000000      0.00000000      0.00000000</v>
  </separator>
  <dos>
   <i name="efermi">      5.59943620 </i>
   <total>
    <array>
     <dimension dim="1">gridpoints</dimension>
     <dimension dim="2">spin</dimension>
     <field>energy</field>
     <field>total</field>
     <field>integrated</field>
     <set>
      <set comment="spin 1">
       <r>    -6.7202     0.0000     0.0000 </r>
       <r>    -6.6669     0.0000     0.0000 </r>
       <r>    -6.6136     0.0000     0.0000 </r>
       <r>    -6.5603     0.0000     0.0000 </r>
       <r>    -6.5069     0.0000     0.0000 </r>
       <r>    -6.4536     0.0000     0.0000 </r>
       <r>    -6.4003     0.0000     0.0000 </r>
       <r>    -6.3470     0.0000     0.0000 </r>
       <r>    -6.2937     0.0000     0.0000 </r>
       <r>    -6.2404     0.0000     0.0000 </r>
       <r>    -6.1870     0.0000     0.0000 </r>
       <r>    -6.1337     0.0013     0.0001 </r>
       <r>    -6.0804     0.2537     0.0136 </r>
       <r>    -6.0271     6.0695     0.3372 </r>
       <r>    -5.9738    20.2436     1.4165 </r>
       <r>    -5.9205    10.1977     1.9603 </r>
       <r>    -5.8671     0.7386     1.9996 </r>
       <r>    -5.8138     0.0068     2.0000 </r>
       <r>    -5.7605     0.0000     2.0000 </r>
       <r>    -5.7072     0.0000     2.0000 </r>
       <r>    -5.6539     0.0000     2.0000 </r>
       <r>    -5.6006     0.0073     2.0004 </r>
       <r>    -5.5472     1.1265     2.0605 </r>
       <r>    -5.4939    22.0188     3.2344 </r>
       <r>    -5.4406    61.4770     6.5122 </r>
       <r>    -5.3873    26.2710     7.9129 </r>
       <r>    -5.3340     1.6201     7.9993 </r>
       <r>    -5.2806     0.0128     8.0000 </r>
       <r>    -5.2273     0.0000     8.0000 </r>
       <r>    -5.1740     0.0000     8.0000 </r>
       <r>    -5.1207     0.0007     8.0000 </r>
       <r>    -5.0674     0.2298     8.0123 </r>
       <r>    -5.0141     9.4089     8.5139 </r>
       <r>    -4.9607    52.6560    11.3214 </r>
       <r>    -4.9074    44.5244    13.6954 </r>
       <r>    -4.8541     5.6188    13.9949 </r>
       <r>    -4.8008     0.0948    14.0000 </r>
       <r>    -4.7475     0.0002    14.0000 </r>
       <r>    -4.6942     0.0001    14.0000 </r>
       <r>    -4.6408     0.0398    14.0021 </r>
       <r>    -4.5875     2.1709    14.1179 </r>
       <r>    -4.5342    15.9426    14.9679 </r>
       <r>    -4.4809    26.3134    16.3709 </r>
       <r>    -4.4276    55.4017    19.3247 </r>
       <r>    -4.3743    44.4835    21.6965 </r>
       <r>    -4.3209     5.5981    21.9950 </r>
       <r>    -4.2676     0.0945    22.0000 </r>
       <r>    -4.2143     0.0002    22.0000 </r>
       <r>    -4.1610     0.0057    22.0003 </r>
       <r>    -4.1077     1.1824    22.0633 </r>
       <r>    -4.0543    31.2318    23.7285 </r>
       <r>    -4.0010   117.7749    30.0080 </r>
       <r>    -3.9477    68.8339    33.6780 </r>
       <r>    -3.8944     8.6846    34.1411 </r>
       <r>    -3.8411    33.1754    35.9099 </r>
       <r>    -3.7878    59.6673    39.0912 </r>
       <r>    -3.7344    16.4080    39.9661 </r>
       <r>    -3.6811     0.6337    39.9998 </r>
       <r>    -3.6278     0.0031    40.0000 </r>
       <r>    -3.5745     0.0000    40.0000 </r>
       <r>    -3.5212     0.0000    40.0000 </r>
       <r>    -3.4679     0.0048    40.0003 </r>
       <r>    -3.4145     0.8520    40.0457 </r>
       <r>    -3.3612    19.0986    41.0640 </r>
       <r>    -3.3079    60.7979    44.3056 </r>
       <r>    -3.2546    29.6536    45.8866 </r>
       <r>    -3.2013     2.1073    45.9990 </r>
       <r>    -3.1480     0.0194    46.0000 </r>
       <r>    -3.0946     0.0077    46.0004 </r>
       <r>    -3.0413     1.1621    46.0624 </r>
       <r>    -2.9880    22.3285    47.2529 </r>
       <r>    -2.9347    61.4817    50.5309 </r>
       <r>    -2.8814    27.1944    51.9808 </r>
       <r>    -2.8280    33.6353    53.7742 </r>
       <r>    -2.7747   118.4756    60.0910 </r>
       <r>    -2.7214    67.5405    63.6921 </r>
       <r>    -2.6681     5.7110    63.9966 </r>
       <r>    -2.6148     0.0640    64.0000 </r>
       <r>    -2.5615     0.0001    64.0000 </r>
       <r>    -2.5081     0.0000    64.0000 </r>
       <r>    -2.4548     0.0000    64.0000 </r>
       <r>    -2.4015     0.0000    64.0000 </r>
       <r>    -2.3482     0.0000    64.0000 </r>
       <r>    -2.2949     0.0000    64.0000 </r>
       <r>    -2.2416     0.0000    64.0000 </r>
       <r>    -2.1882     0.0000    64.0000 </r>
       <r>    -2.1349     0.0000    64.0000 </r>
       <r>    -2.0816     0.0000    64.0000 </r>
       <r>    -2.0283     0.0000    64.0000 </r>
       <r>    -1.9750     0.0000    64.0000 </r>
       <r>    -1.9216     0.0000    64.0000 </r>
       <r>    -1.8683     0.0000    64.0000 </r>
       <r>    -1.8150     0.0000    64.0000 </r>
       <r>    -1.7617     0.0000    64.0000 </r>
       <r>    -1.7084     0.0000    64.0000 </r>
       <r>    -1.6551     0.0000    64.0000 </r>
       <r>    -1.6017     0.0000    64.0000 </r>
       <r>    -1.5484     0.0000    64.0000 </r>
       <r>    -1.4951     0.0000    64.0000 </r>
       <r>    -1.4418     0.0000    64.0000 </r>
       <r>    -1.3885     0.0097    64.0005 </r>
       <r>    -1.3352     1.7046    64.0914 </r>
       <r>    -1.2818    38.1396    66.1249 </r>
       <r>    -1.2285   123.1047    72.6885 </r>
       <r>    -1.1752    85.7484    77.2604 </r>
       <r>    -1.1219    66.3540    80.7982 </r>
       <r>    -1.0686    38.9424    82.8745 </r>
       <r>    -1.0153    64.1074    86.2926 </r>
       <r>    -0.9619    67.0100    89.8654 </r>
       <r>    -0.9086    61.5348    93.1463 </r>
       <r>    -0.8553    15.4430    93.9696 </r>
       <r>    -0.8020     0.5669    93.9999 </r>
       <r>    -0.7487     0.0026    94.0000 </r>
       <r>    -0.6953     0.0000    94.0000 </r>
       <r>    -0.6420     0.0000    94.0000 </r>
       <r>    -0.5887     0.0000    94.0000 </r>
       <r>    -0.5354     0.0000    94.0000 </r>
       <r>    -0.4821     0.0000    94.0000 </r>
       <r>    -0.4288     0.0000    94.0000 </r>
       <r>    -0.3754     0.0040    94.0002 </r>
       <r>    -0.3221     0.5272    94.0283 </r>
       <r>    -0.2688     8.9731    94.5067 </r>
       <r>    -0.2155    33.7697    96.3073 </r>
       <r>    -0.1622   101.1728   101.7015 </r>
       <r>    -0.1089   101.2565   107.1003 </r>
       <r>    -0.0555    16.5032   107.9802 </r>
       <r>    -0.0022     0.3709   107.9999 </r>
       <r>     0.0511     0.0010   108.0000 </r>
       <r>     0.1044     0.0000   108.0000 </r>
       <r>     0.1577     0.0000   108.0000 </r>
       <r>     0.2110     0.0000   108.0000 </r>
       <r>     0.2644     0.0000   108.0000 </r>
       <r>     0.3177     0.0000   108.0000 </r>
       <r>     0.3710     0.0000   108.0000 </r>
       <r>     0.4243     0.0000   108.0000 </r>
       <r>     0.4776     0.0000   108.0000 </r>
       <r>     0.5310     0.0000   108.0000 </r>
       <r>     0.5843     0.0139   108.0007 </r>
       <r>     0.6376     1.7090   108.0919 </r>
       <r>     0.6909    26.9603   109.5293 </r>
       <r>     0.7442    61.4053   112.8033 </r>
       <r>     0.7975    21.3784   113.9431 </r>
       <r>     0.8509     1.0600   113.9996 </r>
       <r>     0.9042     0.0097   114.0002 </r>
       <r>     0.9575     0.6350   114.0340 </r>
       <r>     1.0108    16.5374   114.9158 </r>
       <r>     1.0641    59.9043   118.1097 </r>
       <r>     1.1174    32.8224   119.8597 </r>
       <r>     1.1708     2.6048   119.9986 </r>
       <r>     1.2241     0.0266   120.0000 </r>
       <r>     1.2774     0.0000   120.0000 </r>
       <r>     1.3307     0.0000   120.0000 </r>
       <r>     1.3840     0.0000   120.0000 </r>
       <r>     1.4373     0.0000   120.0000 </r>
       <r>     1.4907     0.0003   120.0000 </r>
       <r>     1.5440     0.1629   120.0087 </r>
       <r>     1.5973    10.3290   120.5594 </r>
       <r>     1.6506    89.8569   125.3504 </r>
       <r>     1.7039   144.9543   133.0789 </r>
       <r>     1.7573    77.9219   137.2335 </r>
       <r>     1.8106    13.9426   137.9769 </r>
       <r>     1.8639     0.4312   137.9999 </r>
       <r>     1.9172     0.0017   138.0000 </r>
       <r>     1.9705     0.0000   138.0000 </r>
       <r>     2.0238     0.0000   138.0000 </r>
       <r>     2.0772     0.0000   138.0000 </r>
       <r>     2.1305     0.0059   138.0003 </r>
       <r>     2.1838     0.9923   138.0532 </r>
       <r>     2.2371    20.8054   139.1625 </r>
       <r>     2.2904    64.0738   142.5788 </r>
       <r>     2.3437    76.3921   146.6518 </r>
       <r>     2.3971   147.7472   154.5293 </r>
       <r>     2.4504   110.4172   160.4164 </r>
       <r>     2.5037    28.1719   161.9185 </r>
       <r>     2.5570     1.5176   161.9994 </r>
       <r>     2.6103     0.0615   162.0027 </r>
       <r>     2.6636     4.9699   162.2677 </r>
       <r>     2.7170    63.9490   165.6773 </r>
       <r>     2.7703   120.1911   172.0855 </r>
       <r>     2.8236    34.5042   173.9252 </r>
       <r>     2.8769     1.4328   174.0016 </r>
       <r>     2.9302     3.9006   174.2096 </r>
       <r>     2.9836    55.4098   177.1639 </r>
       <r>     3.0369   120.8468   183.6071 </r>
       <r>     3.0902    42.5976   185.8783 </r>
       <r>     3.1435     2.2661   185.9991 </r>
       <r>     3.1968     0.0163   186.0000 </r>
       <r>     3.2501     0.1004   186.0054 </r>
       <r>     3.3035     6.7804   186.3669 </r>
       <r>     3.3568    67.6152   189.9719 </r>
       <r>     3.4101   120.5160   196.3975 </r>
       <r>     3.4634    80.5847   200.6941 </r>
       <r>     3.5167    53.1880   203.5300 </r>
       <r>     3.5700     8.6215   203.9896 </r>
       <r>     3.6234     0.2984   204.0055 </r>
       <r>     3.6767     7.9093   204.4272 </r>
       <r>     3.7300    85.0790   208.9634 </r>
       <r>     3.7833   164.7580   217.7479 </r>
       <r>     3.8366    72.4820   221.6125 </r>
       <r>     3.8899     7.1512   221.9937 </r>
       <r>     3.9433     0.2316   222.0061 </r>
       <r>     3.9966     4.1763   222.2288 </r>
       <r>     4.0499    28.2617   223.7356 </r>
       <r>     4.1032    66.3560   227.2735 </r>
       <r>     4.1565    45.5771   229.7036 </r>
       <r>     4.2099     5.4821   229.9959 </r>
       <r>     4.2632     1.6413   230.0834 </r>
       <r>     4.3165    26.5201   231.4974 </r>
       <r>     4.3698    78.4158   235.6783 </r>
       <r>     4.4231    82.1780   240.0598 </r>
       <r>     4.4764    34.3052   241.8889 </r>
       <r>     4.5298    15.1767   242.6981 </r>
       <r>     4.5831    40.6729   244.8666 </r>
       <r>     4.6364    19.8527   245.9251 </r>
       <r>     4.6897     1.3919   245.9993 </r>
       <r>     4.7430     0.0311   246.0010 </r>
       <r>     4.7963     2.0734   246.1115 </r>
       <r>     4.8497    29.5844   247.6889 </r>
       <r>     4.9030    60.9397   250.9381 </r>
       <r>     4.9563    19.0731   251.9550 </r>
       <r>     5.0096     0.8397   251.9998 </r>
       <r>     5.0629     0.0046   252.0000 </r>
       <r>     5.1162     0.0000   252.0000 </r>
       <r>     5.1696     0.0000   252.0000 </r>
       <r>     5.2229     0.0125   252.0007 </r>
       <r>     5.2762     1.3959   252.0751 </r>
       <r>     5.3295    19.8795   253.1350 </r>
       <r>     5.3828    40.6389   255.3018 </r>
       <r>     5.4362    12.5512   255.9710 </r>
       <r>     5.4895     0.5414   255.9998 </r>
       <r>     5.5428     0.0029   256.0000 </r>
       <r>     5.5961     0.0000   256.0000 </r>
       <r>     5.6494     0.0000   256.0000 </r>
       <r>     5.7027     0.0000   256.0000 </r>
       <r>     5.7561     0.0000   256.0000 </r>
       <r>     5.8094     0.0000   256.0000 </r>
       <r>     5.8627     0.0000   256.0000 </r>
       <r>     5.9160     0.0000   256.0000 </r>
       <r>     5.9693     0.0000   256.0000 </r>
       <r>     6.0226     0.0000   256.0000 </r>
       <r>     6.0760     0.0000   256.0000 </r>
       <r>     6.1293     0.0000   256.0000 </r>
       <r>     6.1826     0.0000   256.0000 </r>
       <r>     6.2359     0.0000   256.0000 </r>
       <r>     6.2892     0.0000   256.0000 </r>
       <r>     6.3425     0.0000   256.0000 </r>
       <r>     6.3959     0.0001   256.0000 </r>
       <r>     6.4492     0.0711   256.0038 </r>
       <r>     6.5025     4.7494   256.2570 </r>
       <r>     6.5558    41.9318   258.4927 </r>
       <r>     6.6091    54.7249   261.4105 </r>
       <r>     6.6625    10.7659   261.9845 </r>
       <r>     6.7158     0.2895   261.9999 </r>
       <r>     6.7691     0.0010   262.0000 </r>
       <r>     6.8224     0.0000   262.0000 </r>
       <r>     6.8757     0.0159   262.0009 </r>
       <r>     6.9290     1.8683   262.1005 </r>
       <r>     6.9824    28.1436   263.6010 </r>
       <r>     7.0357    61.2300   266.8656 </r>
       <r>     7.0890    20.3160   267.9488 </r>
       <r>     7.1423     1.1363   268.0094 </r>
       <r>     7.1956     5.0953   268.2811 </r>
       <r>     7.2489    19.7277   269.3329 </r>
       <r>     7.3023    11.5251   269.9474 </r>
       <r>     7.3556     0.9835   269.9998 </r>
       <r>     7.4089     1.1794   270.0627 </r>
       <r>     7.4622    22.5151   271.2632 </r>
       <r>     7.5155    61.8183   274.5592 </r>
       <r>     7.5688    34.1022   276.3774 </r>
       <r>     7.6222    52.5375   279.1786 </r>
       <r>     7.6755    46.6784   281.6673 </r>
       <r>     7.7288    16.8933   282.5680 </r>
       <r>     7.7821    81.7130   286.9248 </r>
       <r>     7.8354   107.3078   292.6461 </r>
       <r>     7.8888    24.5197   293.9535 </r>
       <r>     7.9421     2.3176   294.0770 </r>
       <r>     7.9954    35.2334   295.9556 </r>
       <r>     8.0487   126.5959   302.7053 </r>
       <r>     8.1020    83.8151   307.1742 </r>
       <r>     8.1553    14.7557   307.9609 </r>
       <r>     8.2087     1.5555   308.0438 </r>
       <r>     8.2620    18.9135   309.0522 </r>
       <r>     8.3153    60.9165   312.3001 </r>
       <r>     8.3686    29.7841   313.8882 </r>
       <r>     8.4219     4.5298   314.1297 </r>
       <r>     8.4752    45.2320   316.5413 </r>
       <r>     8.5286   132.9142   323.6280 </r>
       <r>     8.5819    73.2188   327.5318 </r>
       <r>     8.6352     8.5745   327.9890 </r>
       <r>     8.6885     0.2059   328.0000 </r>
       <r>     8.7418     0.0008   328.0000 </r>
       <r>     8.7951     0.0000   328.0000 </r>
       <r>     8.8485     0.0000   328.0000 </r>
       <r>     8.9018     0.0000   328.0000 </r>
       <r>     8.9551     0.0000   328.0000 </r>
       <r>     9.0084     0.0000   328.0000 </r>
       <r>     9.0617     0.0000   328.0000 </r>
       <r>     9.1151     0.0000   328.0000 </r>
       <r>     9.1684     0.0000   328.0000 </r>
       <r>     9.2217     0.0000   328.0000 </r>
       <r>     9.2750     0.0000   328.0000 </r>
      </set>
     </set>
    </array>
   </total>
  </dos>
 </calculation>
 <structure name="finalpos" >
  <crystal>
   <varray name="basis" >
    <v>      10.93252578       0.00000000       0.00000000 </v>
    <v>       0.00000000      10.93252578       0.00000000 </v>
    <v>       0.00000000       0.00000000      10.93252578 </v>
   </varray>
   <i name="volume">   1306.65679237 </i>
   <varray name="rec_basis" >
    <v>       0.09147017       0.00000000       0.00000000 </v>
    <v>       0.00000000       0.09147017       0.00000000 </v>
    <v>       0.00000000       0.00000000       0.09147017 </v>
   </varray>
  </crystal>
  <varray name="positions" >
   <v>       0.44024411       0.43750000       0.43750000 </v>
   <v>       0.93750000       0.43750000       0.43750000 </v>
   <v>       0.43750000       0.93750000       0.43750000 </v>
   <v>       0.93750000       0.93750000       0.43750000 </v>
   <v>       0.43750000       0.43750000       0.93750000 </v>
   <v>       0.93750000       0.43750000       0.93750000 </v>
   <v>       0.43750000       0.93750000       0.93750000 </v>
   <v>       0.93750000       0.93750000       0.93750000 </v>
   <v>       0.43750000       0.18750000       0.18750000 </v>
   <v>       0.93750000       0.18750000       0.18750000 </v>
   <v>       0.43750000       0.68750000       0.18750000 </v>
   <v>       0.93750000       0.68750000       0.18750000 </v>
   <v>       0.43750000       0.18750000       0.68750000 </v>
   <v>       0.93750000       0.18750000       0.68750000 </v>
   <v>       0.43750000       0.68750000       0.68750000 </v>
   <v>       0.93750000       0.68750000       0.68750000 </v>
   <v>       0.18750000       0.43750000       0.18750000 </v>
   <v>       0.68750000       0.43750000       0.18750000 </v>
   <v>       0.18750000       0.93750000       0.18750000 </v>
   <v>       0.68750000       0.93750000       0.18750000 </v>
   <v>       0.18750000       0.43750000       0.68750000 </v>
   <v>       0.68750000       0.43750000       0.68750000 </v>
   <v>       0.18750000       0.93750000       0.68750000 </v>
   <v>       0.68750000       0.93750000       0.68750000 </v>
   <v>       0.18750000       0.18750000       0.43750000 </v>
   <v>       0.68750000       0.18750000       0.43750000 </v>
   <v>       0.18750000       0.68750000       0.43750000 </v>
   <v>       0.68750000       0.68750000       0.43750000 </v>
   <v>       0.18750000       0.18750000       0.93750000 </v>
   <v>       0.68750000       0.18750000       0.93750000 </v>
   <v>       0.18750000       0.68750000       0.93750000 </v>
   <v>       0.68750000       0.68750000       0.93750000 </v>
   <v>       0.06524411       0.06250000       0.06250000 </v>
   <v>       0.56250000       0.06250000       0.06250000 </v>
   <v>       0.06250000       0.56250000       0.06250000 </v>
   <v>       0.56250000       0.56250000       0.06250000 </v>
   <v>       0.06250000       0.06250000       0.56250000 </v>
   <v>       0.56250000       0.06250000       0.56250000 </v>
   <v>       0.06250000       0.56250000       0.56250000 </v>
   <v>       0.56250000       0.56250000       0.56250000 </v>
   <v>       0.06250000       0.31250000       0.31250000 </v>
   <v>       0.56250000       0.31250000       0.31250000 </v>
   <v>       0.06250000       0.81250000       0.31250000 </v>
   <v>       0.56250000       0.81250000       0.31250000 </v>
   <v>       0.06250000       0.31250000       0.81250000 </v>
   <v>       0.56250000       0.31250000       0.81250000 </v>
   <v>       0.06250000       0.81250000       0.81250000 </v>
   <v>       0.56250000       0.81250000       0.81250000 </v>
   <v>       0.31250000       0.06250000       0.31250000 </v>
   <v>       0.81250000       0.06250000       0.31250000 </v>
   <v>       0.31250000       0.56250000       0.31250000 </v>
   <v>       0.81250000       0.56250000       0.31250000 </v>
   <v>       0.31250000       0.06250000       0.81250000 </v>
   <v>       0.81250000       0.06250000       0.81250000 </v>
   <v>       0.31250000       0.56250000       0.81250000 </v>
   <v>       0.81250000       0.56250000       0.81250000 </v>
   <v>       0.31250000       0.31250000       0.06250000 </v>
   <v>       0.81250000       0.31250000       0.06250000 </v>
   <v>       0.31250000       0.81250000       0.06250000 </v>
   <v>       0.81250000       0.81250000       0.06250000 </v>
   <v>       0.31250000       0.31250000       0.56250000 </v>
   <v>       0.81250000       0.31250000       0.56250000 </v>
   <v>       0.31250000       0.81250000       0.56250000 </v>
   <v>       0.81250000       0.81250000       0.56250000 </v>
  </varray>
 </structure>
</modeling>
