
     Program PWSCF v.5.3.0 (svn rev. 11974) starts on  3Feb2016 at 13:44:57 

     This program is part of the open-source Quantum ESPRESSO suite
     for quantum simulation of materials; please cite
         "P. Giannozzi et al., J. Phys.:Condens. Matter 21 395502 (2009);
          URL http://www.quantum-espresso.org", 
     in publications or presentations arising from this work. More details at
     http://www.quantum-espresso.org/quote

     Parallel version (MPI), running on    16 processors
     R & G space division:  proc/nbgrp/npool/nimage =      16
     Reading input from Si.in

     Current dimensions of program PWSCF are:
     Max number of different atomic species (ntypx) = 10
     Max number of k-points (npk) =  40000
     Max angular momentum in pseudopotentials (lmaxx) =  3
               file Si.pbe-n-kjpaw_psl.0.1.UPF: wavefunction(s)  3S renormalized

     Subspace diagonalization in iterative solution of the eigenvalue problem:
     one sub-group per k-point group (pool) will be used
     scalapack distributed-memory algorithm (size of sub-group:  2*  2 procs)

 
     Parallelization info
     --------------------
     sticks:   dense  smooth     PW     G-vecs:    dense   smooth      PW
     Min         424     424    109                26332    26332    3467
     Max         425     425    110                26336    26336    3472
     Sum        6785    6785   1757               421349   421349   55515
 


     bravais-lattice index     =            0
     lattice parameter (alat)  =      20.6591  a.u.
     unit-cell volume          =    8817.2783 (a.u.)^3
     number of atoms/cell      =           64
     number of atomic types    =            1
     number of electrons       =       256.00
     number of Kohn-Sham states=          154
     kinetic-energy cutoff     =      50.0000  Ry
     charge density cutoff     =     200.0000  Ry
     convergence threshold     =      1.0E-09
     mixing beta               =       0.7000
     number of iterations used =            8  plain     mixing
     Exchange-correlation      =  SLA  PW   PBX  PBC ( 1  4  3  4 0 0)

     celldm(1)=  20.659106  celldm(2)=   0.000000  celldm(3)=   0.000000
     celldm(4)=   0.000000  celldm(5)=   0.000000  celldm(6)=   0.000000

     crystal axes: (cart. coord. in units of alat)
               a(1) = (   1.000000   0.000000   0.000000 )  
               a(2) = (   0.000000   1.000000   0.000000 )  
               a(3) = (   0.000000   0.000000   1.000000 )  

     reciprocal axes: (cart. coord. in units 2 pi/alat)
               b(1) = (  1.000000  0.000000  0.000000 )  
               b(2) = (  0.000000  1.000000  0.000000 )  
               b(3) = (  0.000000  0.000000  1.000000 )  


     PseudoPot. # 1 for Si read from file:
     /home/togo/espresso/pseudo/Si.pbe-n-kjpaw_psl.0.1.UPF
     MD5 check sum: b9d333a40e496bef61db012f150758bf
     Pseudo is Projector augmented-wave + core cor, Zval =  4.0
     Generated using "atomic" code by A. Dal Corso  v.5.0.2 svn rev. 9415
     Shape of augmentation charge: PSQ
     Using radial grid of 1141 points,  4 beta functions with: 
                l(1) =   0
                l(2) =   0
                l(3) =   1
                l(4) =   1
     Q(r) pseudized with 0 coefficients 


     atomic species   valence    mass     pseudopotential
        Si             4.00    28.08550     Si( 1.00)

     No symmetry found



   Cartesian axes

     site n.     atom                  positions (alat units)
         1           Si  tau(   1) = (   0.4404043   0.4375000   0.4375000  )
         2           Si  tau(   2) = (   0.9375000   0.4375000   0.4375000  )
         3           Si  tau(   3) = (   0.4375000   0.9375000   0.4375000  )
         4           Si  tau(   4) = (   0.9375000   0.9375000   0.4375000  )
         5           Si  tau(   5) = (   0.4375000   0.4375000   0.9375000  )
         6           Si  tau(   6) = (   0.9375000   0.4375000   0.9375000  )
         7           Si  tau(   7) = (   0.4375000   0.9375000   0.9375000  )
         8           Si  tau(   8) = (   0.9375000   0.9375000   0.9375000  )
         9           Si  tau(   9) = (   0.4375000   0.1875000   0.1875000  )
        10           Si  tau(  10) = (   0.9375000   0.1875000   0.1875000  )
        11           Si  tau(  11) = (   0.4375000   0.6875000   0.1875000  )
        12           Si  tau(  12) = (   0.9375000   0.6875000   0.1875000  )
        13           Si  tau(  13) = (   0.4375000   0.1875000   0.6875000  )
        14           Si  tau(  14) = (   0.9375000   0.1875000   0.6875000  )
        15           Si  tau(  15) = (   0.4375000   0.6875000   0.6875000  )
        16           Si  tau(  16) = (   0.9375000   0.6875000   0.6875000  )
        17           Si  tau(  17) = (   0.1875000   0.4375000   0.1875000  )
        18           Si  tau(  18) = (   0.6875000   0.4375000   0.1875000  )
        19           Si  tau(  19) = (   0.1875000   0.9375000   0.1875000  )
        20           Si  tau(  20) = (   0.6875000   0.9375000   0.1875000  )
        21           Si  tau(  21) = (   0.1875000   0.4375000   0.6875000  )
        22           Si  tau(  22) = (   0.6875000   0.4375000   0.6875000  )
        23           Si  tau(  23) = (   0.1875000   0.9375000   0.6875000  )
        24           Si  tau(  24) = (   0.6875000   0.9375000   0.6875000  )
        25           Si  tau(  25) = (   0.1875000   0.1875000   0.4375000  )
        26           Si  tau(  26) = (   0.6875000   0.1875000   0.4375000  )
        27           Si  tau(  27) = (   0.1875000   0.6875000   0.4375000  )
        28           Si  tau(  28) = (   0.6875000   0.6875000   0.4375000  )
        29           Si  tau(  29) = (   0.1875000   0.1875000   0.9375000  )
        30           Si  tau(  30) = (   0.6875000   0.1875000   0.9375000  )
        31           Si  tau(  31) = (   0.1875000   0.6875000   0.9375000  )
        32           Si  tau(  32) = (   0.6875000   0.6875000   0.9375000  )
        33           Si  tau(  33) = (   0.0625000   0.0625000   0.0625000  )
        34           Si  tau(  34) = (   0.5625000   0.0625000   0.0625000  )
        35           Si  tau(  35) = (   0.0625000   0.5625000   0.0625000  )
        36           Si  tau(  36) = (   0.5625000   0.5625000   0.0625000  )
        37           Si  tau(  37) = (   0.0625000   0.0625000   0.5625000  )
        38           Si  tau(  38) = (   0.5625000   0.0625000   0.5625000  )
        39           Si  tau(  39) = (   0.0625000   0.5654043   0.5625000  )
        40           Si  tau(  40) = (   0.5625000   0.5625000   0.5625000  )
        41           Si  tau(  41) = (   0.0625000   0.3125000   0.3125000  )
        42           Si  tau(  42) = (   0.5625000   0.3125000   0.3125000  )
        43           Si  tau(  43) = (   0.0625000   0.8125000   0.3125000  )
        44           Si  tau(  44) = (   0.5625000   0.8125000   0.3125000  )
        45           Si  tau(  45) = (   0.0625000   0.3125000   0.8125000  )
        46           Si  tau(  46) = (   0.5625000   0.3125000   0.8125000  )
        47           Si  tau(  47) = (   0.0625000   0.8125000   0.8125000  )
        48           Si  tau(  48) = (   0.5625000   0.8125000   0.8125000  )
        49           Si  tau(  49) = (   0.3125000   0.0625000   0.3125000  )
        50           Si  tau(  50) = (   0.8125000   0.0625000   0.3125000  )
        51           Si  tau(  51) = (   0.3125000   0.5625000   0.3125000  )
        52           Si  tau(  52) = (   0.8125000   0.5625000   0.3125000  )
        53           Si  tau(  53) = (   0.3125000   0.0625000   0.8125000  )
        54           Si  tau(  54) = (   0.8125000   0.0625000   0.8125000  )
        55           Si  tau(  55) = (   0.3125000   0.5625000   0.8125000  )
        56           Si  tau(  56) = (   0.8125000   0.5625000   0.8125000  )
        57           Si  tau(  57) = (   0.3125000   0.3125000   0.0625000  )
        58           Si  tau(  58) = (   0.8125000   0.3125000   0.0625000  )
        59           Si  tau(  59) = (   0.3125000   0.8125000   0.0625000  )
        60           Si  tau(  60) = (   0.8125000   0.8125000   0.0625000  )
        61           Si  tau(  61) = (   0.3125000   0.3125000   0.5625000  )
        62           Si  tau(  62) = (   0.8125000   0.3125000   0.5625000  )
        63           Si  tau(  63) = (   0.3125000   0.8125000   0.5625000  )
        64           Si  tau(  64) = (   0.8125000   0.8125000   0.5625000  )

     number of k points=     4  gaussian smearing, width (Ry)=  0.0100
                       cart. coord. in units 2pi/alat
        k(    1) = (   0.2500000   0.2500000   0.2500000), wk =   0.5000000
        k(    2) = (  -0.2500000  -0.2500000   0.2500000), wk =   0.5000000
        k(    3) = (  -0.2500000   0.2500000  -0.2500000), wk =   0.5000000
        k(    4) = (   0.2500000  -0.2500000  -0.2500000), wk =   0.5000000

     Dense  grid:   421349 G-vectors     FFT dimensions: (  96,  96,  96)

     Largest allocated arrays     est. size (Mb)     dimensions
        Kohn-Sham Wavefunctions         7.73 Mb     (    3289,  154)
        NL pseudopotentials            25.70 Mb     (    3289,  512)
        Each V/rho on FFT grid          0.84 Mb     (   55296)
        Each G-vector array             0.20 Mb     (   26336)
        G-vector shells                 0.01 Mb     (    1719)
     Largest temporary arrays     est. size (Mb)     dimensions
        Auxiliary wavefunctions        30.91 Mb     (    3289,  616)
        Each subspace H/S matrix        1.45 Mb     (     308,  308)
        Each <psi_i|beta_j> matrix      1.20 Mb     (     512,  154)
        Arrays for rho mixing           6.75 Mb     (   55296,    8)

     Check: negative/imaginary core charge=   -0.000001    0.000000

     Initial potential from superposition of free atoms

     starting charge  255.96421, renormalised to  256.00000
     Starting wfc are  256 randomized atomic wfcs
     Checking if some PAW data can be deallocated... 

     total cpu time spent up to now is       13.8 secs

     per-process dynamical memory:   114.8 Mb

     Self-consistent Calculation

     iteration #  1     ecut=    50.00 Ry     beta=0.70
     Davidson diagonalization with overlap
     ethr =  1.00E-02,  avg # of iterations =  3.0

     Threshold (ethr) on eigenvalues was too large:
     Diagonalizing with lowered threshold

     Davidson diagonalization with overlap
     ethr =  7.00E-04,  avg # of iterations =  1.0

     total cpu time spent up to now is       73.3 secs

     total energy              =   -2990.45691510 Ry
     Harris-Foulkes estimate   =   -2990.87685788 Ry
     estimated scf accuracy    <       1.77338037 Ry

     iteration #  2     ecut=    50.00 Ry     beta=0.70
     Davidson diagonalization with overlap
     ethr =  6.93E-04,  avg # of iterations =  1.0

     total cpu time spent up to now is       86.5 secs

     total energy              =   -2990.52359606 Ry
     Harris-Foulkes estimate   =   -2990.52749014 Ry
     estimated scf accuracy    <       0.07632462 Ry

     iteration #  3     ecut=    50.00 Ry     beta=0.70
     Davidson diagonalization with overlap
     ethr =  2.98E-05,  avg # of iterations = 12.0

     total cpu time spent up to now is      126.7 secs

     total energy              =   -2990.53050502 Ry
     Harris-Foulkes estimate   =   -2990.53139516 Ry
     estimated scf accuracy    <       0.00207566 Ry

     iteration #  4     ecut=    50.00 Ry     beta=0.70
     Davidson diagonalization with overlap
     ethr =  8.11E-07,  avg # of iterations =  6.5

     total cpu time spent up to now is      162.3 secs

     total energy              =   -2990.53018919 Ry
     Harris-Foulkes estimate   =   -2990.53293713 Ry
     estimated scf accuracy    <       0.00861922 Ry

     iteration #  5     ecut=    50.00 Ry     beta=0.70
     Davidson diagonalization with overlap
     ethr =  8.11E-07,  avg # of iterations =  5.0

     total cpu time spent up to now is      187.5 secs

     total energy              =   -2990.53147300 Ry
     Harris-Foulkes estimate   =   -2990.53161499 Ry
     estimated scf accuracy    <       0.00041609 Ry

     iteration #  6     ecut=    50.00 Ry     beta=0.70
     Davidson diagonalization with overlap
     ethr =  1.63E-07,  avg # of iterations =  2.0

     total cpu time spent up to now is      203.7 secs

     total energy              =   -2990.53154492 Ry
     Harris-Foulkes estimate   =   -2990.53156107 Ry
     estimated scf accuracy    <       0.00004636 Ry

     iteration #  7     ecut=    50.00 Ry     beta=0.70
     Davidson diagonalization with overlap
     ethr =  1.81E-08,  avg # of iterations =  2.8

     total cpu time spent up to now is      221.5 secs

     total energy              =   -2990.53155356 Ry
     Harris-Foulkes estimate   =   -2990.53155543 Ry
     estimated scf accuracy    <       0.00000431 Ry

     iteration #  8     ecut=    50.00 Ry     beta=0.70
     Davidson diagonalization with overlap
     ethr =  1.68E-09,  avg # of iterations =  3.0

     total cpu time spent up to now is      242.1 secs

     total energy              =   -2990.53155472 Ry
     Harris-Foulkes estimate   =   -2990.53155495 Ry
     estimated scf accuracy    <       0.00000053 Ry

     iteration #  9     ecut=    50.00 Ry     beta=0.70
     Davidson diagonalization with overlap
     ethr =  2.09E-10,  avg # of iterations =  3.0

     total cpu time spent up to now is      261.0 secs

     total energy              =   -2990.53155475 Ry
     Harris-Foulkes estimate   =   -2990.53155486 Ry
     estimated scf accuracy    <       0.00000021 Ry

     iteration # 10     ecut=    50.00 Ry     beta=0.70
     Davidson diagonalization with overlap
     ethr =  8.08E-11,  avg # of iterations =  2.2

     total cpu time spent up to now is      277.1 secs

     total energy              =   -2990.53155474 Ry
     Harris-Foulkes estimate   =   -2990.53155480 Ry
     estimated scf accuracy    <       0.00000006 Ry

     iteration # 11     ecut=    50.00 Ry     beta=0.70
     Davidson diagonalization with overlap
     ethr =  2.51E-11,  avg # of iterations =  2.0

     total cpu time spent up to now is      293.6 secs

     total energy              =   -2990.53155475 Ry
     Harris-Foulkes estimate   =   -2990.53155475 Ry
     estimated scf accuracy    <          1.8E-09 Ry

     iteration # 12     ecut=    50.00 Ry     beta=0.70
     Davidson diagonalization with overlap
     ethr =  7.09E-13,  avg # of iterations =  3.0

     total cpu time spent up to now is      320.9 secs

     total energy              =   -2990.53155475 Ry
     Harris-Foulkes estimate   =   -2990.53155475 Ry
     estimated scf accuracy    <          1.5E-09 Ry

     iteration # 13     ecut=    50.00 Ry     beta=0.70
     Davidson diagonalization with overlap
     ethr =  5.93E-13,  avg # of iterations =  3.0

     total cpu time spent up to now is      338.8 secs

     End of self-consistent calculation

          k = 0.2500 0.2500 0.2500 ( 52563 PWs)   bands (ev):

    -5.6250  -5.1005  -5.0963  -5.0922  -4.6009  -4.5966  -4.5927  -4.1632
    -4.0676  -4.0633  -4.0592  -3.6566  -3.6498  -3.6470  -3.6449  -3.6444
    -3.6397  -3.4591  -3.4548  -3.4505  -2.9638  -2.9579  -2.9541  -2.5929
    -2.5891  -2.5857  -2.4306  -2.4233  -2.4207  -2.4190  -2.4184  -2.4125
    -0.8885  -0.8816  -0.8781  -0.8767  -0.8751  -0.8702  -0.7840  -0.7805
    -0.7767  -0.6674  -0.6621  -0.6570  -0.5839  -0.5752  -0.5690   0.1263
     0.2014   0.2063   0.2106   0.2133   0.2145   0.2184   1.0794   1.0861
     1.0906   1.4138   1.4186   1.4226   2.0247   2.0263   2.0280   2.0294
     2.0321   2.0344   2.0846   2.0886   2.0914   2.6383   2.6401   2.6418
     2.7373   2.7394   2.7415   2.7441   2.7470   2.7496   2.7922   2.7962
     2.8010   3.1010   3.1045   3.1078   3.1085   3.1099   3.1136   3.3686
     3.3720   3.3740   3.3822   3.3869   3.3902   3.7311   3.7346   3.7380
     3.7540   3.7566   3.7589   3.8358   3.8405   3.8423   4.1055   4.1119
     4.1138   4.1150   4.1170   4.1220   4.1494   4.1550   4.1570   4.4132
     4.4678   4.4708   4.4743   4.7101   4.7151   4.7181   4.7730   4.7791
     4.7849   4.9319   4.9406   5.2378   5.2445   5.2484   5.7191   5.7289
     6.9324   6.9363   6.9400   7.3710   7.3784   7.3809   7.5987   7.8567
     7.8631   7.8658   7.9877   7.9917   7.9956   8.1472   8.1515   8.1546
     8.1656   8.1692   8.1734   8.3943   8.3988   8.4028   8.4039   8.4057
     8.4086   8.4481

          k =-0.2500-0.2500 0.2500 ( 52563 PWs)   bands (ev):

    -5.6250  -5.1000  -5.0970  -5.0920  -4.6003  -4.5974  -4.5925  -4.1631
    -4.0670  -4.0642  -4.0588  -3.6558  -3.6492  -3.6489  -3.6458  -3.6441
    -3.6386  -3.4589  -3.4548  -3.4505  -2.9627  -2.9597  -2.9534  -2.5930
    -2.5891  -2.5856  -2.4294  -2.4233  -2.4224  -2.4193  -2.4176  -2.4124
    -0.8879  -0.8820  -0.8797  -0.8765  -0.8741  -0.8697  -0.7839  -0.7807
    -0.7767  -0.6673  -0.6622  -0.6569  -0.5835  -0.5761  -0.5686   0.1263
     0.2025   0.2055   0.2088   0.2122   0.2159   0.2196   1.0798   1.0850
     1.0912   1.4140   1.4181   1.4229   2.0243   2.0267   2.0283   2.0296
     2.0308   2.0351   2.0849   2.0880   2.0916   2.6379   2.6400   2.6424
     2.7368   2.7390   2.7425   2.7445   2.7476   2.7485   2.7925   2.7959
     2.8011   3.1019   3.1046   3.1065   3.1072   3.1100   3.1152   3.3697
     3.3718   3.3735   3.3823   3.3861   3.3903   3.7304   3.7351   3.7376
     3.7527   3.7565   3.7610   3.8362   3.8392   3.8432   4.1063   4.1119
     4.1131   4.1149   4.1166   4.1226   4.1499   4.1534   4.1578   4.4130
     4.4687   4.4713   4.4731   4.7106   4.7141   4.7187   4.7733   4.7786
     4.7851   4.9319   4.9405   5.2383   5.2433   5.2491   5.7191   5.7289
     6.9330   6.9360   6.9396   7.3711   7.3777   7.3813   7.5987   7.8567
     7.8630   7.8658   7.9876   7.9918   7.9956   8.1469   8.1521   8.1544
     8.1674   8.1692   8.1716   8.3967   8.3985   8.4001   8.4031   8.4058
     8.4100   8.4482

          k =-0.2500 0.2500-0.2500 ( 52563 PWs)   bands (ev):

    -5.6251  -5.0989  -5.0978  -5.0919  -4.5994  -4.5985  -4.5924  -4.1643
    -4.0663  -4.0653  -4.0594  -3.6513  -3.6505  -3.6496  -3.6479  -3.6407
    -3.6394  -3.4577  -3.4547  -3.4499  -2.9635  -2.9621  -2.9557  -2.5923
    -2.5891  -2.5853  -2.4257  -2.4245  -2.4228  -2.4218  -2.4159  -2.4121
    -0.8855  -0.8831  -0.8810  -0.8793  -0.8740  -0.8700  -0.7849  -0.7809
    -0.7783  -0.6679  -0.6622  -0.6613  -0.5771  -0.5721  -0.5662   0.1300
     0.2019   0.2053   0.2065   0.2095   0.2155   0.2169   1.0831   1.0887
     1.0915   1.4155   1.4186   1.4208   2.0252   2.0264   2.0285   2.0296
     2.0309   2.0334   2.0849   2.0863   2.0902   2.6401   2.6424   2.6436
     2.7353   2.7380   2.7416   2.7440   2.7452   2.7465   2.7914   2.7942
     2.7975   3.1023   3.1047   3.1061   3.1079   3.1119   3.1136   3.3689
     3.3700   3.3727   3.3825   3.3848   3.3876   3.7338   3.7353   3.7405
     3.7562   3.7597   3.7633   3.8348   3.8389   3.8415   4.1117   4.1131
     4.1150   4.1169   4.1192   4.1258   4.1483   4.1529   4.1562   4.4169
     4.4668   4.4679   4.4714   4.7086   4.7132   4.7155   4.7792   4.7843
     4.7878   4.9325   4.9375   5.2356   5.2418   5.2450   5.7188   5.7244
     6.9318   6.9338   6.9380   7.3708   7.3768   7.3803   7.5972   7.8562
     7.8605   7.8639   7.9892   7.9938   7.9963   8.1476   8.1508   8.1539
     8.1663   8.1681   8.1711   8.3980   8.4000   8.4037   8.4048   8.4084
     8.4098   8.4459

          k = 0.2500-0.2500-0.2500 ( 52563 PWs)   bands (ev):

    -5.6250  -5.0994  -5.0966  -5.0934  -4.5995  -4.5969  -4.5937  -4.1620
    -4.0659  -4.0634  -4.0597  -3.6550  -3.6522  -3.6466  -3.6462  -3.6439
    -3.6413  -3.4596  -3.4549  -3.4519  -2.9593  -2.9582  -2.9525  -2.5935
    -2.5892  -2.5861  -2.4292  -2.4251  -2.4206  -2.4201  -2.4168  -2.4145
    -0.8863  -0.8808  -0.8778  -0.8774  -0.8730  -0.8716  -0.7830  -0.7801
    -0.7759  -0.6631  -0.6618  -0.6561  -0.5883  -0.5778  -0.5749   0.1226
     0.2066   0.2094   0.2109   0.2117   0.2160   0.2190   1.0760   1.0849
     1.0879   1.4152   1.4184   1.4215   2.0244   2.0271   2.0285   2.0302
     2.0320   2.0332   2.0871   2.0892   2.0920   2.6366   2.6377   2.6401
     2.7391   2.7407   2.7446   2.7453   2.7479   2.7490   2.7951   2.7992
     2.8022   3.1031   3.1051   3.1073   3.1082   3.1086   3.1122   3.3709
     3.3733   3.3740   3.3852   3.3873   3.3905   3.7289   3.7328   3.7357
     3.7502   3.7536   3.7567   3.8386   3.8409   3.8428   4.1027   4.1084
     4.1123   4.1145   4.1149   4.1159   4.1527   4.1551   4.1576   4.4089
     4.4711   4.4739   4.4750   4.7140   4.7165   4.7189   4.7673   4.7766
     4.7783   4.9350   4.9400   5.2429   5.2462   5.2500   5.7236   5.7293
     6.9346   6.9387   6.9405   7.3735   7.3771   7.3819   7.6002   7.8598
     7.8634   7.8673   7.9873   7.9895   7.9941   8.1490   8.1504   8.1556
     8.1671   8.1707   8.1723   8.3947   8.3966   8.4005   8.4028   8.4037
     8.4049   8.4505

     the Fermi energy is     6.3276 ev

!    total energy              =   -2990.53155475 Ry
     Harris-Foulkes estimate   =   -2990.53155475 Ry
     estimated scf accuracy    <          6.1E-10 Ry

     total all-electron energy =    -37124.667108 Ry

     The total energy is the sum of the following terms:

     one-electron contribution =     178.60630784 Ry
     hartree contribution      =      35.70155245 Ry
     xc contribution           =    -391.44199696 Ry
     ewald contribution        =    -534.00611230 Ry
     one-center paw contrib.   =   -2279.39130578 Ry
     smearing contrib. (-TS)   =       0.00000000 Ry

     convergence has been achieved in  13 iterations

     Forces acting on atoms (Ry/au):

     atom    1 type  1   force =    -0.01585360   -0.00005736    0.00005107
     atom    2 type  1   force =     0.00250522    0.00381209    0.00248104
     atom    3 type  1   force =     0.00008082    0.00002797    0.00002920
     atom    4 type  1   force =     0.00003113   -0.00001281    0.00003809
     atom    5 type  1   force =     0.00008163    0.00025299    0.00002797
     atom    6 type  1   force =     0.00004509   -0.00005813    0.00003760
     atom    7 type  1   force =    -0.00044453   -0.00002200    0.00003068
     atom    8 type  1   force =     0.00005403    0.00002804    0.00002653
     atom    9 type  1   force =    -0.00055983    0.00009254    0.00014573
     atom   10 type  1   force =    -0.00002658    0.00003536    0.00003446
     atom   11 type  1   force =    -0.00055219    0.00036556   -0.00008055
     atom   12 type  1   force =    -0.00004904   -0.00005059    0.00002899
     atom   13 type  1   force =    -0.00054964   -0.00008395    0.00013586
     atom   14 type  1   force =    -0.00003654   -0.00002274    0.00004789
     atom   15 type  1   force =    -0.00056777   -0.00017377   -0.00006451
     atom   16 type  1   force =    -0.00270468    0.00392124    0.00269567
     atom   17 type  1   force =     0.00017926   -0.00016793    0.00019076
     atom   18 type  1   force =     0.00021094    0.00013919   -0.00026025
     atom   19 type  1   force =     0.00001318    0.00001815   -0.00010380
     atom   20 type  1   force =     0.00001254   -0.00003158    0.00004565
     atom   21 type  1   force =    -0.00225073    0.00392241   -0.00270993
     atom   22 type  1   force =     0.00020129    0.00005536    0.00018103
     atom   23 type  1   force =     0.00000442   -0.00000307    0.00003929
     atom   24 type  1   force =     0.00001639    0.00003745   -0.00010539
     atom   25 type  1   force =     0.00026958    0.00021481   -0.00014757
     atom   26 type  1   force =     0.00026372   -0.00020696   -0.00014067
     atom   27 type  1   force =     0.00293711    0.00370180   -0.00259594
     atom   28 type  1   force =     0.00027673    0.00017298    0.00006355
     atom   29 type  1   force =     0.00006852   -0.00005136   -0.00003497
     atom   30 type  1   force =     0.00007476    0.00005425   -0.00004074
     atom   31 type  1   force =     0.00009209    0.00001715   -0.00002929
     atom   32 type  1   force =     0.00007173    0.00018037   -0.00001788
     atom   33 type  1   force =    -0.00002158    0.00002357    0.00003092
     atom   34 type  1   force =     0.00025617    0.00005182    0.00002800
     atom   35 type  1   force =     0.00002592    0.00008170    0.00002519
     atom   36 type  1   force =    -0.00006019   -0.00042440    0.00003924
     atom   37 type  1   force =     0.00002646    0.00004717    0.00002686
     atom   38 type  1   force =    -0.00006086    0.00003102    0.00005004
     atom   39 type  1   force =    -0.00001211   -0.01585339    0.00003950
     atom   40 type  1   force =     0.00392871    0.00276076    0.00270457
     atom   41 type  1   force =     0.00009756    0.00019359    0.00018946
     atom   42 type  1   force =     0.00393864   -0.00266277   -0.00278223
     atom   43 type  1   force =     0.00014022    0.00021289   -0.00025957
     atom   44 type  1   force =    -0.00005081    0.00000376    0.00002642
     atom   45 type  1   force =    -0.00008387    0.00020449   -0.00025281
     atom   46 type  1   force =    -0.00006993   -0.00000773    0.00003826
     atom   47 type  1   force =    -0.00013520    0.00020705    0.00020148
     atom   48 type  1   force =     0.00024644    0.00001541   -0.00010454
     atom   49 type  1   force =    -0.00006849   -0.00003774    0.00006135
     atom   50 type  1   force =     0.00001920   -0.00002656    0.00001936
     atom   51 type  1   force =     0.00369678   -0.00300924    0.00259525
     atom   52 type  1   force =    -0.00012148   -0.00056108   -0.00007212
     atom   53 type  1   force =     0.00026120   -0.00002761    0.00003655
     atom   54 type  1   force =    -0.00001114   -0.00003166    0.00002143
     atom   55 type  1   force =     0.00005001   -0.00057450    0.00014652
     atom   56 type  1   force =     0.00014347   -0.00055663   -0.00008690
     atom   57 type  1   force =     0.00001770    0.00009449   -0.00004643
     atom   58 type  1   force =    -0.00004783    0.00007182   -0.00001702
     atom   59 type  1   force =     0.00017557    0.00007040   -0.00003706
     atom   60 type  1   force =     0.00005544    0.00007330   -0.00002110
     atom   61 type  1   force =     0.00358313    0.00271283   -0.00259191
     atom   62 type  1   force =     0.00021587    0.00026906    0.00007196
     atom   63 type  1   force =     0.00017391    0.00027545   -0.00016518
     atom   64 type  1   force =    -0.00020395    0.00026528    0.00008495

     Total force =     0.027174     Total SCF correction =     0.000050

     Writing output data file pwscf.save
 
     init_run     :     10.53s CPU     11.44s WALL (       1 calls)
     electrons    :    296.29s CPU    325.34s WALL (       1 calls)
     forces       :      4.09s CPU      4.21s WALL (       1 calls)

     Called by init_run:
     wfcinit      :      9.91s CPU     10.74s WALL (       1 calls)
     potinit      :      0.24s CPU      0.24s WALL (       1 calls)

     Called by electrons:
     c_bands      :    262.73s CPU    279.76s WALL (      14 calls)
     sum_band     :     24.13s CPU     26.19s WALL (      14 calls)
     v_of_rho     :      0.69s CPU      0.69s WALL (      14 calls)
     newd         :      0.98s CPU      1.03s WALL (      14 calls)
     PAW_pot      :      2.30s CPU      2.31s WALL (      14 calls)
     mix_rho      :      0.31s CPU      0.31s WALL (      14 calls)

     Called by c_bands:
     init_us_2    :      2.56s CPU      2.57s WALL (     120 calls)
     cegterg      :    251.35s CPU    255.49s WALL (      56 calls)

     Called by sum_band:
     sum_band:bec :      0.04s CPU      0.04s WALL (      56 calls)
     addusdens    :      1.03s CPU      1.10s WALL (      14 calls)

     Called by *egterg:
     h_psi        :    119.33s CPU    119.74s WALL (     258 calls)
     s_psi        :     30.55s CPU     30.61s WALL (     258 calls)
     g_psi        :      1.06s CPU      1.07s WALL (     198 calls)
     cdiaghg      :     38.95s CPU     39.01s WALL (     250 calls)

     Called by h_psi:
     add_vuspsi   :     30.64s CPU     30.70s WALL (     258 calls)

     General routines
     calbec       :     47.07s CPU     47.20s WALL (     330 calls)
     fft          :      0.39s CPU      0.41s WALL (     195 calls)
     fftw         :     59.16s CPU     59.34s WALL (   57148 calls)
     davcio       :      0.00s CPU      0.01s WALL (       4 calls)
 
     Parallel routines
     fft_scatter  :     17.35s CPU     17.20s WALL (   57343 calls)
 
     PWSCF        :  5m11.18s CPU     6m15.02s WALL

 
   This run was terminated on:  13:51:12   3Feb2016            

=------------------------------------------------------------------------------=
   JOB DONE.
=------------------------------------------------------------------------------=
