
     Program PWSCF v.5.3.0 (svn rev. 11974) starts on  3Feb2016 at 13:39:12 

     This program is part of the open-source Quantum ESPRESSO suite
     for quantum simulation of materials; please cite
         "P. Giannozzi et al., J. Phys.:Condens. Matter 21 395502 (2009);
          URL http://www.quantum-espresso.org", 
     in publications or presentations arising from this work. More details at
     http://www.quantum-espresso.org/quote

     Parallel version (MPI), running on    16 processors
     R & G space division:  proc/nbgrp/npool/nimage =      16
     Reading input from Si.in

     Current dimensions of program PWSCF are:
     Max number of different atomic species (ntypx) = 10
     Max number of k-points (npk) =  40000
     Max angular momentum in pseudopotentials (lmaxx) =  3
               file Si.pbe-n-kjpaw_psl.0.1.UPF: wavefunction(s)  3S renormalized

     Subspace diagonalization in iterative solution of the eigenvalue problem:
     one sub-group per k-point group (pool) will be used
     scalapack distributed-memory algorithm (size of sub-group:  2*  2 procs)

 
     Parallelization info
     --------------------
     sticks:   dense  smooth     PW     G-vecs:    dense   smooth      PW
     Min         424     424    109                26332    26332    3467
     Max         425     425    110                26336    26336    3472
     Sum        6785    6785   1757               421349   421349   55515
 


     bravais-lattice index     =            0
     lattice parameter (alat)  =      20.6591  a.u.
     unit-cell volume          =    8817.2783 (a.u.)^3
     number of atoms/cell      =           64
     number of atomic types    =            1
     number of electrons       =       256.00
     number of Kohn-Sham states=          154
     kinetic-energy cutoff     =      50.0000  Ry
     charge density cutoff     =     200.0000  Ry
     convergence threshold     =      1.0E-09
     mixing beta               =       0.7000
     number of iterations used =            8  plain     mixing
     Exchange-correlation      =  SLA  PW   PBX  PBC ( 1  4  3  4 0 0)

     celldm(1)=  20.659106  celldm(2)=   0.000000  celldm(3)=   0.000000
     celldm(4)=   0.000000  celldm(5)=   0.000000  celldm(6)=   0.000000

     crystal axes: (cart. coord. in units of alat)
               a(1) = (   1.000000   0.000000   0.000000 )  
               a(2) = (   0.000000   1.000000   0.000000 )  
               a(3) = (   0.000000   0.000000   1.000000 )  

     reciprocal axes: (cart. coord. in units 2 pi/alat)
               b(1) = (  1.000000  0.000000  0.000000 )  
               b(2) = (  0.000000  1.000000  0.000000 )  
               b(3) = (  0.000000  0.000000  1.000000 )  


     PseudoPot. # 1 for Si read from file:
     /home/togo/espresso/pseudo/Si.pbe-n-kjpaw_psl.0.1.UPF
     MD5 check sum: b9d333a40e496bef61db012f150758bf
     Pseudo is Projector augmented-wave + core cor, Zval =  4.0
     Generated using "atomic" code by A. Dal Corso  v.5.0.2 svn rev. 9415
     Shape of augmentation charge: PSQ
     Using radial grid of 1141 points,  4 beta functions with: 
                l(1) =   0
                l(2) =   0
                l(3) =   1
                l(4) =   1
     Q(r) pseudized with 0 coefficients 


     atomic species   valence    mass     pseudopotential
        Si             4.00    28.08550     Si( 1.00)

     No symmetry found



   Cartesian axes

     site n.     atom                  positions (alat units)
         1           Si  tau(   1) = (   0.4404043   0.4375000   0.4375000  )
         2           Si  tau(   2) = (   0.9375000   0.4375000   0.4375000  )
         3           Si  tau(   3) = (   0.4375000   0.9375000   0.4375000  )
         4           Si  tau(   4) = (   0.9375000   0.9375000   0.4375000  )
         5           Si  tau(   5) = (   0.4375000   0.4375000   0.9375000  )
         6           Si  tau(   6) = (   0.9375000   0.4375000   0.9375000  )
         7           Si  tau(   7) = (   0.4375000   0.9375000   0.9375000  )
         8           Si  tau(   8) = (   0.9375000   0.9375000   0.9375000  )
         9           Si  tau(   9) = (   0.4375000   0.1875000   0.1875000  )
        10           Si  tau(  10) = (   0.9375000   0.1875000   0.1875000  )
        11           Si  tau(  11) = (   0.4375000   0.6875000   0.1875000  )
        12           Si  tau(  12) = (   0.9375000   0.6875000   0.1875000  )
        13           Si  tau(  13) = (   0.4375000   0.1875000   0.6875000  )
        14           Si  tau(  14) = (   0.9375000   0.1875000   0.6875000  )
        15           Si  tau(  15) = (   0.4375000   0.6875000   0.6875000  )
        16           Si  tau(  16) = (   0.9375000   0.6875000   0.6875000  )
        17           Si  tau(  17) = (   0.1875000   0.4375000   0.1875000  )
        18           Si  tau(  18) = (   0.6875000   0.4375000   0.1875000  )
        19           Si  tau(  19) = (   0.1875000   0.9375000   0.1875000  )
        20           Si  tau(  20) = (   0.6904043   0.9375000   0.1875000  )
        21           Si  tau(  21) = (   0.1875000   0.4375000   0.6875000  )
        22           Si  tau(  22) = (   0.6875000   0.4375000   0.6875000  )
        23           Si  tau(  23) = (   0.1875000   0.9375000   0.6875000  )
        24           Si  tau(  24) = (   0.6875000   0.9375000   0.6875000  )
        25           Si  tau(  25) = (   0.1875000   0.1875000   0.4375000  )
        26           Si  tau(  26) = (   0.6875000   0.1875000   0.4375000  )
        27           Si  tau(  27) = (   0.1875000   0.6875000   0.4375000  )
        28           Si  tau(  28) = (   0.6875000   0.6875000   0.4375000  )
        29           Si  tau(  29) = (   0.1875000   0.1875000   0.9375000  )
        30           Si  tau(  30) = (   0.6875000   0.1875000   0.9375000  )
        31           Si  tau(  31) = (   0.1875000   0.6875000   0.9375000  )
        32           Si  tau(  32) = (   0.6875000   0.6875000   0.9375000  )
        33           Si  tau(  33) = (   0.0625000   0.0625000   0.0625000  )
        34           Si  tau(  34) = (   0.5625000   0.0625000   0.0625000  )
        35           Si  tau(  35) = (   0.0625000   0.5625000   0.0625000  )
        36           Si  tau(  36) = (   0.5625000   0.5625000   0.0625000  )
        37           Si  tau(  37) = (   0.0625000   0.0625000   0.5625000  )
        38           Si  tau(  38) = (   0.5625000   0.0625000   0.5625000  )
        39           Si  tau(  39) = (   0.0625000   0.5625000   0.5625000  )
        40           Si  tau(  40) = (   0.5625000   0.5625000   0.5625000  )
        41           Si  tau(  41) = (   0.0625000   0.3125000   0.3125000  )
        42           Si  tau(  42) = (   0.5625000   0.3125000   0.3125000  )
        43           Si  tau(  43) = (   0.0625000   0.8125000   0.3125000  )
        44           Si  tau(  44) = (   0.5625000   0.8125000   0.3125000  )
        45           Si  tau(  45) = (   0.0625000   0.3125000   0.8125000  )
        46           Si  tau(  46) = (   0.5625000   0.3125000   0.8125000  )
        47           Si  tau(  47) = (   0.0625000   0.8125000   0.8125000  )
        48           Si  tau(  48) = (   0.5625000   0.8125000   0.8125000  )
        49           Si  tau(  49) = (   0.3125000   0.0625000   0.3125000  )
        50           Si  tau(  50) = (   0.8125000   0.0625000   0.3125000  )
        51           Si  tau(  51) = (   0.3125000   0.5625000   0.3125000  )
        52           Si  tau(  52) = (   0.8125000   0.5625000   0.3125000  )
        53           Si  tau(  53) = (   0.3125000   0.0625000   0.8125000  )
        54           Si  tau(  54) = (   0.8125000   0.0625000   0.8125000  )
        55           Si  tau(  55) = (   0.3125000   0.5625000   0.8125000  )
        56           Si  tau(  56) = (   0.8125000   0.5625000   0.8125000  )
        57           Si  tau(  57) = (   0.3125000   0.3125000   0.0625000  )
        58           Si  tau(  58) = (   0.8125000   0.3125000   0.0625000  )
        59           Si  tau(  59) = (   0.3125000   0.8125000   0.0625000  )
        60           Si  tau(  60) = (   0.8125000   0.8125000   0.0625000  )
        61           Si  tau(  61) = (   0.3125000   0.3125000   0.5625000  )
        62           Si  tau(  62) = (   0.8125000   0.3125000   0.5625000  )
        63           Si  tau(  63) = (   0.3125000   0.8125000   0.5625000  )
        64           Si  tau(  64) = (   0.8125000   0.8125000   0.5625000  )

     number of k points=     4  gaussian smearing, width (Ry)=  0.0100
                       cart. coord. in units 2pi/alat
        k(    1) = (   0.2500000   0.2500000   0.2500000), wk =   0.5000000
        k(    2) = (  -0.2500000  -0.2500000   0.2500000), wk =   0.5000000
        k(    3) = (  -0.2500000   0.2500000  -0.2500000), wk =   0.5000000
        k(    4) = (   0.2500000  -0.2500000  -0.2500000), wk =   0.5000000

     Dense  grid:   421349 G-vectors     FFT dimensions: (  96,  96,  96)

     Largest allocated arrays     est. size (Mb)     dimensions
        Kohn-Sham Wavefunctions         7.73 Mb     (    3289,  154)
        NL pseudopotentials            25.70 Mb     (    3289,  512)
        Each V/rho on FFT grid          0.84 Mb     (   55296)
        Each G-vector array             0.20 Mb     (   26336)
        G-vector shells                 0.01 Mb     (    1719)
     Largest temporary arrays     est. size (Mb)     dimensions
        Auxiliary wavefunctions        30.91 Mb     (    3289,  616)
        Each subspace H/S matrix        1.45 Mb     (     308,  308)
        Each <psi_i|beta_j> matrix      1.20 Mb     (     512,  154)
        Arrays for rho mixing           6.75 Mb     (   55296,    8)

     Check: negative/imaginary core charge=   -0.000001    0.000000

     Initial potential from superposition of free atoms

     starting charge  255.96421, renormalised to  256.00000
     Starting wfc are  256 randomized atomic wfcs
     Checking if some PAW data can be deallocated... 

     total cpu time spent up to now is        9.1 secs

     per-process dynamical memory:   114.8 Mb

     Self-consistent Calculation

     iteration #  1     ecut=    50.00 Ry     beta=0.70
     Davidson diagonalization with overlap
     ethr =  1.00E-02,  avg # of iterations =  3.0

     Threshold (ethr) on eigenvalues was too large:
     Diagonalizing with lowered threshold

     Davidson diagonalization with overlap
     ethr =  7.00E-04,  avg # of iterations =  1.0

     total cpu time spent up to now is       55.9 secs

     total energy              =   -2990.45695953 Ry
     Harris-Foulkes estimate   =   -2990.87679889 Ry
     estimated scf accuracy    <       1.77308942 Ry

     iteration #  2     ecut=    50.00 Ry     beta=0.70
     Davidson diagonalization with overlap
     ethr =  6.93E-04,  avg # of iterations =  1.0

     total cpu time spent up to now is       69.3 secs

     total energy              =   -2990.52360372 Ry
     Harris-Foulkes estimate   =   -2990.52748455 Ry
     estimated scf accuracy    <       0.07633846 Ry

     iteration #  3     ecut=    50.00 Ry     beta=0.70
     Davidson diagonalization with overlap
     ethr =  2.98E-05,  avg # of iterations = 10.2

     total cpu time spent up to now is       98.9 secs

     total energy              =   -2990.53058618 Ry
     Harris-Foulkes estimate   =   -2990.53137202 Ry
     estimated scf accuracy    <       0.00195943 Ry

     iteration #  4     ecut=    50.00 Ry     beta=0.70
     Davidson diagonalization with overlap
     ethr =  7.65E-07,  avg # of iterations =  9.2

     total cpu time spent up to now is      142.0 secs

     total energy              =   -2990.53040090 Ry
     Harris-Foulkes estimate   =   -2990.53271543 Ry
     estimated scf accuracy    <       0.00728012 Ry

     iteration #  5     ecut=    50.00 Ry     beta=0.70
     Davidson diagonalization with overlap
     ethr =  7.65E-07,  avg # of iterations =  4.2

     total cpu time spent up to now is      165.4 secs

     total energy              =   -2990.53148497 Ry
     Harris-Foulkes estimate   =   -2990.53160296 Ry
     estimated scf accuracy    <       0.00033831 Ry

     iteration #  6     ecut=    50.00 Ry     beta=0.70
     Davidson diagonalization with overlap
     ethr =  1.32E-07,  avg # of iterations =  2.0

     total cpu time spent up to now is      182.0 secs

     total energy              =   -2990.53154523 Ry
     Harris-Foulkes estimate   =   -2990.53156198 Ry
     estimated scf accuracy    <       0.00004814 Ry

     iteration #  7     ecut=    50.00 Ry     beta=0.70
     Davidson diagonalization with overlap
     ethr =  1.88E-08,  avg # of iterations =  2.0

     total cpu time spent up to now is      203.2 secs

     total energy              =   -2990.53155397 Ry
     Harris-Foulkes estimate   =   -2990.53155556 Ry
     estimated scf accuracy    <       0.00000362 Ry

     iteration #  8     ecut=    50.00 Ry     beta=0.70
     Davidson diagonalization with overlap
     ethr =  1.41E-09,  avg # of iterations =  3.0

     total cpu time spent up to now is      224.5 secs

     total energy              =   -2990.53155504 Ry
     Harris-Foulkes estimate   =   -2990.53155524 Ry
     estimated scf accuracy    <       0.00000045 Ry

     iteration #  9     ecut=    50.00 Ry     beta=0.70
     Davidson diagonalization with overlap
     ethr =  1.77E-10,  avg # of iterations =  3.0

     total cpu time spent up to now is      243.5 secs

     total energy              =   -2990.53155505 Ry
     Harris-Foulkes estimate   =   -2990.53155515 Ry
     estimated scf accuracy    <       0.00000017 Ry

     iteration # 10     ecut=    50.00 Ry     beta=0.70
     Davidson diagonalization with overlap
     ethr =  6.81E-11,  avg # of iterations =  3.0

     total cpu time spent up to now is      260.8 secs

     total energy              =   -2990.53155503 Ry
     Harris-Foulkes estimate   =   -2990.53155509 Ry
     estimated scf accuracy    <       0.00000006 Ry

     iteration # 11     ecut=    50.00 Ry     beta=0.70
     Davidson diagonalization with overlap
     ethr =  2.25E-11,  avg # of iterations =  2.0

     total cpu time spent up to now is      277.6 secs

     total energy              =   -2990.53155505 Ry
     Harris-Foulkes estimate   =   -2990.53155504 Ry
     estimated scf accuracy    <          1.8E-09 Ry

     iteration # 12     ecut=    50.00 Ry     beta=0.70
     Davidson diagonalization with overlap
     ethr =  7.14E-13,  avg # of iterations =  3.0

     total cpu time spent up to now is      302.9 secs

     total energy              =   -2990.53155505 Ry
     Harris-Foulkes estimate   =   -2990.53155505 Ry
     estimated scf accuracy    <          1.5E-09 Ry

     iteration # 13     ecut=    50.00 Ry     beta=0.70
     Davidson diagonalization with overlap
     ethr =  5.70E-13,  avg # of iterations =  2.0

     total cpu time spent up to now is      321.0 secs

     End of self-consistent calculation

          k = 0.2500 0.2500 0.2500 ( 52563 PWs)   bands (ev):

    -5.6250  -5.0991  -5.0965  -5.0938  -4.5994  -4.5967  -4.5940  -4.1621
    -4.0657  -4.0630  -4.0604  -3.6565  -3.6506  -3.6470  -3.6455  -3.6434
    -3.6421  -3.4574  -3.4567  -3.4523  -2.9594  -2.9572  -2.9536  -2.5930
    -2.5903  -2.5856  -2.4301  -2.4234  -2.4210  -2.4194  -2.4166  -2.4158
    -0.8893  -0.8798  -0.8781  -0.8756  -0.8731  -0.8712  -0.7841  -0.7788
    -0.7758  -0.6670  -0.6573  -0.6568  -0.5854  -0.5809  -0.5748   0.1225
     0.2016   0.2095   0.2110   0.2143   0.2171   0.2202   1.0771   1.0844
     1.0873   1.4131   1.4202   1.4218   2.0247   2.0261   2.0291   2.0300
     2.0313   2.0339   2.0866   2.0908   2.0914   2.6352   2.6390   2.6401
     2.7395   2.7412   2.7430   2.7446   2.7475   2.7497   2.7943   2.7997
     2.8033   3.0994   3.1062   3.1074   3.1086   3.1106   3.1124   3.3714
     3.3720   3.3749   3.3821   3.3896   3.3911   3.7286   3.7335   3.7354
     3.7514   3.7529   3.7562   3.8375   3.8407   3.8438   4.1049   4.1075
     4.1113   4.1140   4.1150   4.1163   4.1517   4.1550   4.1586   4.4090
     4.4712   4.4719   4.4768   4.7127   4.7163   4.7201   4.7697   4.7746
     4.7782   4.9325   4.9425   5.2419   5.2458   5.2513   5.7207   5.7321
     6.9364   6.9364   6.9409   7.3726   7.3786   7.3813   7.6002   7.8589
     7.8640   7.8676   7.9864   7.9917   7.9926   8.1492   8.1519   8.1546
     8.1674   8.1686   8.1735   8.3922   8.3980   8.4002   8.4022   8.4043
     8.4063   8.4507

          k =-0.2500-0.2500 0.2500 ( 52563 PWs)   bands (ev):

    -5.6251  -5.0997  -5.0972  -5.0917  -4.6004  -4.5976  -4.5924  -4.1642
    -4.0674  -4.0646  -4.0592  -3.6524  -3.6509  -3.6481  -3.6473  -3.6430
    -3.6378  -3.4575  -3.4526  -3.4521  -2.9654  -2.9603  -2.9556  -2.5925
    -2.5886  -2.5856  -2.4258  -2.4250  -2.4223  -2.4211  -2.4176  -2.4110
    -0.8856  -0.8842  -0.8800  -0.8785  -0.8766  -0.8678  -0.7853  -0.7821
    -0.7765  -0.6674  -0.6669  -0.6574  -0.5771  -0.5751  -0.5630   0.1300
     0.2012   0.2034   0.2087   0.2103   0.2121   0.2199   1.0837   1.0854
     1.0942   1.4148   1.4162   1.4239   2.0238   2.0263   2.0285   2.0298
     2.0326   2.0333   2.0841   2.0856   2.0915   2.6400   2.6413   2.6449
     2.7356   2.7373   2.7418   2.7441   2.7457   2.7468   2.7903   2.7926
     2.7994   3.1028   3.1041   3.1072   3.1079   3.1092   3.1154   3.3668
     3.3717   3.3722   3.3822   3.3832   3.3901   3.7341   3.7348   3.7401
     3.7571   3.7598   3.7629   3.8343   3.8393   3.8418   4.1123   4.1134
     4.1145   4.1172   4.1205   4.1237   4.1474   4.1533   4.1565   4.4171
     4.4649   4.4704   4.4709   4.7079   4.7140   4.7154   4.7794   4.7809
     4.7912   4.9298   4.9401   5.2344   5.2428   5.2452   5.7160   5.7272
     6.9316   6.9360   6.9360   7.3702   7.3770   7.3807   7.5972   7.8548
     7.8608   7.8648   7.9907   7.9917   7.9969   8.1459   8.1526   8.1536
     8.1657   8.1696   8.1707   8.3980   8.4015   8.4028   8.4039   8.4064
     8.4122   8.4461

          k =-0.2500 0.2500-0.2500 ( 52563 PWs)   bands (ev):

    -5.6251  -5.0988  -5.0962  -5.0937  -4.5994  -4.5967  -4.5942  -4.1643
    -4.0662  -4.0638  -4.0612  -3.6518  -3.6506  -3.6485  -3.6469  -3.6437
    -3.6379  -3.4575  -3.4526  -3.4521  -2.9636  -2.9600  -2.9578  -2.5926
    -2.5886  -2.5856  -2.4256  -2.4250  -2.4223  -2.4207  -2.4180  -2.4111
    -0.8856  -0.8835  -0.8809  -0.8780  -0.8769  -0.8680  -0.7853  -0.7823
    -0.7763  -0.6673  -0.6669  -0.6574  -0.5777  -0.5713  -0.5663   0.1299
     0.2016   0.2046   0.2071   0.2103   0.2120   0.2199   1.0834   1.0864
     1.0936   1.4147   1.4166   1.4235   2.0237   2.0268   2.0285   2.0291
     2.0323   2.0332   2.0853   2.0861   2.0905   2.6399   2.6413   2.6448
     2.7353   2.7368   2.7419   2.7436   2.7453   2.7469   2.7912   2.7941
     2.7985   3.1030   3.1047   3.1066   3.1078   3.1090   3.1154   3.3669
     3.3718   3.3722   3.3826   3.3831   3.3898   3.7338   3.7358   3.7394
     3.7571   3.7598   3.7628   3.8350   3.8383   3.8417   4.1123   4.1135
     4.1146   4.1170   4.1205   4.1240   4.1485   4.1523   4.1566   4.4171
     4.4648   4.4701   4.4711   4.7086   4.7129   4.7156   4.7791   4.7832
     4.7891   4.9300   4.9402   5.2358   5.2412   5.2454   5.7160   5.7272
     6.9316   6.9360   6.9360   7.3721   7.3749   7.3809   7.5972   7.8562
     7.8595   7.8649   7.9906   7.9916   7.9970   8.1482   8.1503   8.1542
     8.1653   8.1697   8.1703   8.3973   8.4006   8.4028   8.4049   8.4069
     8.4123   8.4460

          k = 0.2500-0.2500-0.2500 ( 52563 PWs)   bands (ev):

    -5.6250  -5.1011  -5.0953  -5.0930  -4.6012  -4.5956  -4.5933  -4.1621
    -4.0677  -4.0620  -4.0592  -3.6567  -3.6512  -3.6466  -3.6459  -3.6432
    -3.6417  -3.4574  -3.4567  -3.4523  -2.9615  -2.9567  -2.9519  -2.5929
    -2.5903  -2.5856  -2.4302  -2.4239  -2.4206  -2.4194  -2.4166  -2.4157
    -0.8891  -0.8800  -0.8776  -0.8763  -0.8728  -0.8711  -0.7843  -0.7786
    -0.7758  -0.6670  -0.6572  -0.6569  -0.5886  -0.5772  -0.5752   0.1225
     0.2016   0.2094   0.2111   0.2128   0.2183   0.2206   1.0764   1.0855
     1.0869   1.4127   1.4208   1.4217   2.0246   2.0257   2.0287   2.0300
     2.0321   2.0346   2.0856   2.0904   2.0919   2.6353   2.6389   2.6402
     2.7392   2.7408   2.7424   2.7445   2.7491   2.7512   2.7935   2.8002
     2.8022   3.0995   3.1060   3.1072   3.1080   3.1112   3.1127   3.3714
     3.3720   3.3748   3.3817   3.3902   3.3909   3.7278   3.7344   3.7352
     3.7514   3.7529   3.7562   3.8378   3.8397   3.8448   4.1051   4.1076
     4.1110   4.1140   4.1151   4.1161   4.1518   4.1537   4.1594   4.4090
     4.4710   4.4721   4.4768   4.7128   4.7149   4.7216   4.7681   4.7767
     4.7779   4.9325   4.9423   5.2421   5.2440   5.2528   5.7207   5.7321
     6.9364   6.9364   6.9409   7.3728   7.3766   7.3831   7.6002   7.8589
     7.8629   7.8685   7.9863   7.9917   7.9927   8.1490   8.1503   8.1555
     8.1679   8.1684   8.1743   8.3920   8.3987   8.4009   8.4022   8.4035
     8.4060   8.4507

     the Fermi energy is     6.3278 ev

!    total energy              =   -2990.53155505 Ry
     Harris-Foulkes estimate   =   -2990.53155505 Ry
     estimated scf accuracy    <          3.5E-10 Ry

     total all-electron energy =    -37124.667108 Ry

     The total energy is the sum of the following terms:

     one-electron contribution =     178.60655690 Ry
     hartree contribution      =      35.70143016 Ry
     xc contribution           =    -391.44199653 Ry
     ewald contribution        =    -534.00623987 Ry
     one-center paw contrib.   =   -2279.39130570 Ry
     smearing contrib. (-TS)   =       0.00000000 Ry

     convergence has been achieved in  13 iterations

     Forces acting on atoms (Ry/au):

     atom    1 type  1   force =    -0.01584752    0.00001039    0.00007786
     atom    2 type  1   force =     0.00006543    0.00000938   -0.00007652
     atom    3 type  1   force =     0.00028678    0.00010961   -0.00022723
     atom    4 type  1   force =     0.00023040    0.00011382    0.00023220
     atom    5 type  1   force =     0.00009654   -0.00000941   -0.00007743
     atom    6 type  1   force =     0.00003625   -0.00000986    0.00007648
     atom    7 type  1   force =    -0.00024359   -0.00011037    0.00022809
     atom    8 type  1   force =     0.00026297   -0.00011401   -0.00023235
     atom    9 type  1   force =    -0.00029681   -0.00011355    0.00022373
     atom   10 type  1   force =     0.00023780    0.00024277    0.00012336
     atom   11 type  1   force =    -0.00029179    0.00033722   -0.00021900
     atom   12 type  1   force =     0.00023854   -0.00022342   -0.00012352
     atom   13 type  1   force =    -0.00048120   -0.00003197    0.00011886
     atom   14 type  1   force =     0.00004348   -0.00008513    0.00001912
     atom   15 type  1   force =    -0.00048544   -0.00019121   -0.00012381
     atom   16 type  1   force =     0.00004264    0.00006584   -0.00001891
     atom   17 type  1   force =     0.00022408   -0.00010986    0.00022696
     atom   18 type  1   force =     0.00029325   -0.00011360   -0.00023251
     atom   19 type  1   force =     0.00006532   -0.00000967   -0.00007728
     atom   20 type  1   force =    -0.01584801   -0.00000934    0.00007647
     atom   21 type  1   force =     0.00025625    0.00010949   -0.00022727
     atom   22 type  1   force =    -0.00023699    0.00011343    0.00023202
     atom   23 type  1   force =     0.00003645    0.00000946    0.00007757
     atom   24 type  1   force =     0.00009680    0.00000985   -0.00007702
     atom   25 type  1   force =     0.00023117    0.00021895   -0.00011888
     atom   26 type  1   force =    -0.00029054   -0.00034633   -0.00022836
     atom   27 type  1   force =     0.00023277   -0.00023808    0.00011917
     atom   28 type  1   force =    -0.00028572    0.00012314    0.00022340
     atom   29 type  1   force =     0.00004351   -0.00006651   -0.00001911
     atom   30 type  1   force =    -0.00048091    0.00018632   -0.00011934
     atom   31 type  1   force =     0.00004256    0.00008592    0.00001885
     atom   32 type  1   force =    -0.00048571    0.00003735    0.00012429
     atom   33 type  1   force =    -0.00003384   -0.00000643    0.00006922
     atom   34 type  1   force =     0.00406771   -0.00245391    0.00251014
     atom   35 type  1   force =     0.00005469   -0.00000065    0.00005408
     atom   36 type  1   force =    -0.00011913    0.00001316    0.00009044
     atom   37 type  1   force =     0.00005449   -0.00000279    0.00005315
     atom   38 type  1   force =    -0.00011889   -0.00001285    0.00008717
     atom   39 type  1   force =    -0.00003376    0.00000660    0.00006890
     atom   40 type  1   force =     0.00418154    0.00267726    0.00273242
     atom   41 type  1   force =     0.00001558   -0.00001098   -0.00006705
     atom   42 type  1   force =     0.00387110   -0.00266809   -0.00275568
     atom   43 type  1   force =     0.00001345    0.00001246   -0.00006509
     atom   44 type  1   force =     0.00375157    0.00244246   -0.00253233
     atom   45 type  1   force =     0.00000508    0.00000483   -0.00005568
     atom   46 type  1   force =     0.00019204   -0.00002219   -0.00006676
     atom   47 type  1   force =     0.00000747   -0.00000267   -0.00005736
     atom   48 type  1   force =     0.00019667    0.00002332   -0.00006524
     atom   49 type  1   force =    -0.00007081    0.00000122    0.00008942
     atom   50 type  1   force =     0.00395708    0.00267796    0.00273384
     atom   51 type  1   force =     0.00383828   -0.00245690    0.00250900
     atom   52 type  1   force =    -0.00007304    0.00000065    0.00008772
     atom   53 type  1   force =     0.00027914   -0.00000048    0.00005252
     atom   54 type  1   force =    -0.00008225    0.00002013    0.00006950
     atom   55 type  1   force =    -0.00007999   -0.00002098    0.00006857
     atom   56 type  1   force =     0.00028430   -0.00000128    0.00005466
     atom   57 type  1   force =    -0.00003272    0.00002700   -0.00006425
     atom   58 type  1   force =    -0.00003172   -0.00000926   -0.00007663
     atom   59 type  1   force =     0.00024026   -0.00001090   -0.00006582
     atom   60 type  1   force =     0.00390759   -0.00267495   -0.00273491
     atom   61 type  1   force =     0.00379045    0.00245089   -0.00251296
     atom   62 type  1   force =     0.00024355    0.00001012   -0.00006577
     atom   63 type  1   force =    -0.00003153    0.00001020   -0.00007637
     atom   64 type  1   force =    -0.00003311   -0.00002353   -0.00006872

     Total force =     0.027156     Total SCF correction =     0.000036

     Writing output data file pwscf.save
 
     init_run     :      8.72s CPU      8.84s WALL (       1 calls)
     electrons    :    303.14s CPU    312.68s WALL (       1 calls)
     forces       :      4.16s CPU      4.32s WALL (       1 calls)

     Called by init_run:
     wfcinit      :      8.15s CPU      8.22s WALL (       1 calls)
     potinit      :      0.24s CPU      0.24s WALL (       1 calls)

     Called by electrons:
     c_bands      :    273.70s CPU    282.20s WALL (      14 calls)
     sum_band     :     25.31s CPU     25.54s WALL (      14 calls)
     v_of_rho     :      0.69s CPU      0.69s WALL (      14 calls)
     newd         :      0.99s CPU      1.04s WALL (      14 calls)
     PAW_pot      :      2.30s CPU      2.31s WALL (      14 calls)
     mix_rho      :      0.31s CPU      0.32s WALL (      14 calls)

     Called by c_bands:
     init_us_2    :      2.64s CPU      2.66s WALL (     120 calls)
     cegterg      :    258.37s CPU    262.26s WALL (      56 calls)

     Called by sum_band:
     sum_band:bec :      0.05s CPU      0.05s WALL (      56 calls)
     addusdens    :      1.03s CPU      1.13s WALL (      14 calls)

     Called by *egterg:
     h_psi        :    119.80s CPU    120.03s WALL (     255 calls)
     s_psi        :     30.63s CPU     30.65s WALL (     255 calls)
     g_psi        :      1.06s CPU      1.06s WALL (     195 calls)
     cdiaghg      :     40.86s CPU     40.88s WALL (     247 calls)

     Called by h_psi:
     add_vuspsi   :     30.58s CPU     30.61s WALL (     255 calls)

     General routines
     calbec       :     47.11s CPU     47.16s WALL (     327 calls)
     fft          :      0.41s CPU      0.41s WALL (     195 calls)
     fftw         :     59.73s CPU     59.85s WALL (   57138 calls)
     davcio       :      0.00s CPU      0.01s WALL (       4 calls)
 
     Parallel routines
     fft_scatter  :     15.84s CPU     15.82s WALL (   57333 calls)
 
     PWSCF        :  5m16.34s CPU     6m24.65s WALL

 
   This run was terminated on:  13:45:37   3Feb2016            

=------------------------------------------------------------------------------=
   JOB DONE.
=------------------------------------------------------------------------------=
