<?xml version="1.0" encoding="ISO-8859-1"?>
<modeling>
 <generator>
  <i name="program" type="string">vasp </i>
  <i name="version" type="string">5.4.1  </i>
  <i name="subversion" type="string">05Feb16 (build Mar 26 2016 11:58:25) complex                          parallel </i>
  <i name="platform" type="string">IFC91_ompi </i>
  <i name="date" type="string">2017 03 12 </i>
  <i name="time" type="string">12:13:56 </i>
 </generator>
 <incar>
  <i type="string" name="PREC">accurate</i>
  <i type="int" name="IALGO">    38</i>
  <i type="logical" name="ADDGRID"> T  </i>
  <i type="int" name="NELMIN">     5</i>
  <i type="int" name="IBRION">    -1</i>
  <i name="EDIFF">      0.00000001</i>
  <i name="ENCUT">    300.00000000</i>
  <i type="logical" name="LREAL"> F  </i>
  <i type="int" name="ISMEAR">     0</i>
  <i name="SIGMA">      0.05000000</i>
  <i type="logical" name="LWAVE"> F  </i>
  <i type="logical" name="LCHARG"> F  </i>
  <v type="int" name="KPOINT_BSE">    -1     0     0     0</v>
 </incar>
 <kpoints>
  <generation param="Monkhorst-Pack">
   <v type="int" name="divisions">       2        2        2 </v>
   <v name="usershift">      0.00000000       0.00000000       0.00000000 </v>
   <v name="genvec1">      0.50000000       0.00000000       0.00000000 </v>
   <v name="genvec2">      0.00000000       0.50000000       0.00000000 </v>
   <v name="genvec3">      0.00000000       0.00000000       0.50000000 </v>
   <v name="shift">      0.50000000       0.50000000       0.50000000 </v>
  </generation>
  <varray name="kpointlist" >
   <v>       0.25000000       0.25000000       0.25000000 </v>
   <v>      -0.25000000       0.25000000       0.25000000 </v>
   <v>       0.25000000      -0.25000000       0.25000000 </v>
   <v>      -0.25000000      -0.25000000       0.25000000 </v>
  </varray>
  <varray name="weights" >
   <v>       0.25000000 </v>
   <v>       0.25000000 </v>
   <v>       0.25000000 </v>
   <v>       0.25000000 </v>
  </varray>
 </kpoints>
 <parameters>
  <separator name="general" >
   <i type="string" name="SYSTEM">unknown system</i>
   <i type="logical" name="LCOMPAT"> F  </i>
  </separator>
  <separator name="electronic" >
   <i type="string" name="PREC">accura</i>
   <i name="ENMAX">    300.00000000</i>
   <i name="ENAUG">    322.06900000</i>
   <i name="EDIFF">      0.00000001</i>
   <i type="int" name="IALGO">    38</i>
   <i type="int" name="IWAVPR">    10</i>
   <i type="int" name="NBANDS">   164</i>
   <i name="NELECT">    256.00000000</i>
   <i type="int" name="TURBO">     0</i>
   <i type="int" name="IRESTART">     0</i>
   <i type="int" name="NREBOOT">     0</i>
   <i type="int" name="NMIN">     0</i>
   <i name="EREF">      0.00000000</i>
   <separator name="electronic smearing" >
    <i type="int" name="ISMEAR">     0</i>
    <i name="SIGMA">      0.05000000</i>
    <i name="KSPACING">      0.50000000</i>
    <i type="logical" name="KGAMMA"> T  </i>
   </separator>
   <separator name="electronic projectors" >
    <i type="logical" name="LREAL"> F  </i>
    <v name="ROPT">      0.00000000</v>
    <i type="int" name="LMAXPAW">  -100</i>
    <i type="int" name="LMAXMIX">     2</i>
    <i type="logical" name="NLSPLINE"> F  </i>
   </separator>
   <separator name="electronic startup" >
    <i type="int" name="ISTART">     0</i>
    <i type="int" name="ICHARG">     2</i>
    <i type="int" name="INIWAV">     1</i>
   </separator>
   <separator name="electronic spin" >
    <i type="int" name="ISPIN">     1</i>
    <i type="logical" name="LNONCOLLINEAR"> F  </i>
    <v name="MAGMOM">      1.00000000      1.00000000      1.00000000      1.00000000      1.00000000      1.00000000      1.00000000      1.00000000      1.00000000      1.00000000      1.00000000      1.00000000      1.00000000      1.00000000      1.00000000      1.00000000      1.00000000      1.00000000      1.00000000      1.00000000
      1.00000000      1.00000000      1.00000000      1.00000000      1.00000000      1.00000000      1.00000000      1.00000000      1.00000000      1.00000000      1.00000000      1.00000000      1.00000000      1.00000000      1.00000000      1.00000000      1.00000000      1.00000000      1.00000000      1.00000000
      1.00000000      1.00000000      1.00000000      1.00000000      1.00000000      1.00000000      1.00000000      1.00000000      1.00000000      1.00000000      1.00000000      1.00000000      1.00000000      1.00000000      1.00000000      1.00000000      1.00000000      1.00000000      1.00000000      1.00000000
      1.00000000      1.00000000      1.00000000      1.00000000</v>
    <i name="NUPDOWN">     -1.00000000</i>
    <i type="logical" name="LSORBIT"> F  </i>
    <v name="SAXIS">      0.00000000      0.00000000      1.00000000</v>
    <i type="logical" name="LSPIRAL"> F  </i>
    <v name="QSPIRAL">      0.00000000      0.00000000      0.00000000</v>
    <i type="logical" name="LZEROZ"> F  </i>
   </separator>
   <separator name="electronic exchange-correlation" >
    <i type="logical" name="LASPH"> F  </i>
    <i type="logical" name="LMETAGGA"> F  </i>
   </separator>
   <separator name="electronic convergence" >
    <i type="int" name="NELM">    60</i>
    <i type="int" name="NELMDL">    -5</i>
    <i type="int" name="NELMIN">     5</i>
    <i name="ENINI">    300.00000000</i>
    <separator name="electronic convergence detail" >
     <i type="logical" name="LDIAG"> T  </i>
     <i type="logical" name="LSUBROT"> F  </i>
     <i name="WEIMIN">      0.00000000</i>
     <i name="EBREAK">      0.00000000</i>
     <i name="DEPER">      0.30000000</i>
     <i type="int" name="NRMM">     4</i>
     <i name="TIME">      0.40000000</i>
    </separator>
   </separator>
   <separator name="electronic mixer" >
    <i name="AMIX">      0.40000000</i>
    <i name="BMIX">      1.00000000</i>
    <i name="AMIN">      0.10000000</i>
    <i name="AMIX_MAG">      1.60000000</i>
    <i name="BMIX_MAG">      1.00000000</i>
    <separator name="electronic mixer details" >
     <i type="int" name="IMIX">     4</i>
     <i type="logical" name="MIXFIRST"> F  </i>
     <i type="int" name="MAXMIX">   -45</i>
     <i name="WC">    100.00000000</i>
     <i type="int" name="INIMIX">     1</i>
     <i type="int" name="MIXPRE">     1</i>
     <i type="int" name="MREMOVE">     5</i>
    </separator>
   </separator>
   <separator name="electronic dipolcorrection" >
    <i type="logical" name="LDIPOL"> F  </i>
    <i type="logical" name="LMONO"> F  </i>
    <i type="int" name="IDIPOL">     0</i>
    <i name="EPSILON">      1.00000000</i>
    <v name="DIPOL">   -100.00000000   -100.00000000   -100.00000000</v>
    <i name="EFIELD">      0.00000000</i>
   </separator>
  </separator>
  <separator name="grids" >
   <i type="int" name="NGX">    64</i>
   <i type="int" name="NGY">    64</i>
   <i type="int" name="NGZ">    64</i>
   <i type="int" name="NGXF">   128</i>
   <i type="int" name="NGYF">   128</i>
   <i type="int" name="NGZF">   128</i>
   <i type="logical" name="ADDGRID"> T  </i>
  </separator>
  <separator name="ionic" >
   <i type="int" name="NSW">     0</i>
   <i type="int" name="IBRION">    -1</i>
   <i type="int" name="ISIF">     2</i>
   <i name="PSTRESS">      0.00000000</i>
   <i name="EDIFFG">      0.00000010</i>
   <i type="int" name="NFREE">     0</i>
   <i name="POTIM">      0.50000000</i>
   <i name="SMASS">     -3.00000000</i>
   <i name="SCALEE">      1.00000000</i>
  </separator>
  <separator name="ionic md" >
   <i name="TEBEG">      0.00010000</i>
   <i name="TEEND">      0.00010000</i>
   <i type="int" name="NBLOCK">     1</i>
   <i type="int" name="KBLOCK">     1</i>
   <i type="int" name="NPACO">   256</i>
   <i name="APACO">     16.00000000</i>
  </separator>
  <separator name="symmetry" >
   <i type="int" name="ISYM">     2</i>
   <i name="SYMPREC">      0.00001000</i>
  </separator>
  <separator name="dos" >
   <i type="logical" name="LORBIT"> F  </i>
   <v name="RWIGS">     -1.00000000</v>
   <i type="int" name="NEDOS">   301</i>
   <i name="EMIN">     10.00000000</i>
   <i name="EMAX">    -10.00000000</i>
   <i name="EFERMI">      0.00000000</i>
  </separator>
  <separator name="writing" >
   <i type="int" name="NWRITE">     2</i>
   <i type="logical" name="LWAVE"> F  </i>
   <i type="logical" name="LCHARG"> F  </i>
   <i type="logical" name="LPARD"> F  </i>
   <i type="logical" name="LVTOT"> F  </i>
   <i type="logical" name="LVHAR"> F  </i>
   <i type="logical" name="LELF"> F  </i>
   <i type="logical" name="LOPTICS"> F  </i>
   <v name="STM">      0.00000000      0.00000000      0.00000000      0.00000000      0.00000000      0.00000000      0.00000000</v>
  </separator>
  <separator name="performance" >
   <i type="int" name="NPAR">     4</i>
   <i type="int" name="NSIM">     4</i>
   <i type="int" name="NBLK">    -1</i>
   <i type="logical" name="LPLANE"> T  </i>
   <i type="logical" name="LSCALAPACK"> T  </i>
   <i type="logical" name="LSCAAWARE"> F  </i>
   <i type="logical" name="LSCALU"> F  </i>
   <i type="logical" name="LASYNC"> F  </i>
   <i type="logical" name="LORBITALREAL"> F  </i>
  </separator>
  <separator name="miscellaneous" >
   <i type="int" name="IDIOT">     3</i>
   <i type="logical" name="LMUSIC"> F  </i>
   <v name="POMASS">     28.08500000</v>
   <v name="DARWINR">      0.00000000</v>
   <v name="DARWINV">      1.00000000</v>
   <i type="logical" name="LCORR"> T  </i>
  </separator>
  <i type="logical" name="GGA_COMPAT"> T  </i>
  <i type="logical" name="LBERRY"> F  </i>
  <i type="int" name="ICORELEVEL">     0</i>
  <i type="logical" name="LDAU"> F  </i>
  <i type="int" name="I_CONSTRAINED_M">     0</i>
  <separator name="electronic exchange-correlation" >
   <i type="string" name="GGA">--</i>
   <i type="int" name="VOSKOWN">     0</i>
   <i type="logical" name="LHFCALC"> F  </i>
   <i type="string" name="PRECFOCK"></i>
   <i type="logical" name="LSYMGRAD"> F  </i>
   <i type="logical" name="LHFONE"> F  </i>
   <i type="logical" name="LRHFCALC"> F  </i>
   <i type="logical" name="LTHOMAS"> F  </i>
   <i type="logical" name="LMODELHF"> F  </i>
   <i name="ENCUT4O">     -1.00000000</i>
   <i type="int" name="EXXOEP">     0</i>
   <i type="int" name="FOURORBIT">     0</i>
   <i name="AEXX">      0.00000000</i>
   <i name="HFALPHA">      0.00000000</i>
   <i name="MCALPHA">      0.00000000</i>
   <i name="ALDAX">      1.00000000</i>
   <i name="AGGAX">      1.00000000</i>
   <i name="ALDAC">      1.00000000</i>
   <i name="AGGAC">      1.00000000</i>
   <i type="int" name="NKREDX">     1</i>
   <i type="int" name="NKREDY">     1</i>
   <i type="int" name="NKREDZ">     1</i>
   <i type="logical" name="SHIFTRED"> F  </i>
   <i type="logical" name="ODDONLY"> F  </i>
   <i type="logical" name="EVENONLY"> F  </i>
   <i type="int" name="LMAXFOCK">     0</i>
   <i type="int" name="NMAXFOCKAE">     0</i>
   <i type="logical" name="LFOCKAEDFT"> F  </i>
   <i name="HFSCREEN">      0.00000000</i>
   <i name="HFSCREENC">      0.00000000</i>
   <i type="int" name="NBANDSGWLOW">     0</i>
  </separator>
  <separator name="vdW DFT" >
   <i type="logical" name="LUSE_VDW"> F  </i>
   <i name="Zab_VDW">     -0.84910000</i>
   <i name="PARAM1">      0.12340000</i>
   <i name="PARAM2">      1.00000000</i>
   <i name="PARAM3">      0.00000000</i>
  </separator>
  <separator name="model GW" >
   <i type="int" name="MODEL_GW">     0</i>
   <i name="MODEL_EPS0">     12.24990743</i>
   <i name="MODEL_ALPHA">      1.00000000</i>
  </separator>
  <separator name="linear response parameters" >
   <i type="logical" name="LEPSILON"> F  </i>
   <i type="logical" name="LRPA"> F  </i>
   <i type="logical" name="LNABLA"> F  </i>
   <i type="logical" name="LVEL"> F  </i>
   <i type="int" name="KINTER">     0</i>
   <i name="CSHIFT">      0.10000000</i>
   <i name="OMEGAMAX">     -1.00000000</i>
   <i name="DEG_THRESHOLD">      0.00200000</i>
  </separator>
  <separator name="orbital magnetization" >
   <i type="logical" name="NUCIND"> F  </i>
   <v name="MAGPOS">      0.00000000      0.00000000      0.00000000</v>
   <i type="logical" name="LNICSALL"> T  </i>
   <i type="logical" name="ORBITALMAG"> F  </i>
   <i type="logical" name="LMAGBLOCH"> F  </i>
   <i type="logical" name="LCHIMAG"> F  </i>
   <i type="logical" name="LGAUGE"> T  </i>
   <i type="int" name="MAGATOM">     0</i>
   <v name="MAGDIPOL">      0.00000000      0.00000000      0.00000000</v>
   <v name="AVECCONST">      0.00000000      0.00000000      0.00000000</v>
  </separator>
  <separator name="response functions" >
   <i type="logical" name="LADDER"> F  </i>
   <i type="logical" name="LFXC"> F  </i>
   <i type="logical" name="LHARTREE"> T  </i>
   <i type="int" name="IBSE">     0</i>
   <v type="int" name="KPOINT">    -1     0     0     0</v>
   <i type="logical" name="LTCTE"> F  </i>
   <i type="logical" name="LTETE"> F  </i>
   <i type="logical" name="LTRIPLET"> F  </i>
   <i type="logical" name="LFXCEPS"> F  </i>
   <i type="logical" name="LFXHEG"> F  </i>
   <i type="int" name="NATURALO">     0</i>
   <i type="logical" name="L2ORDER"> F  </i>
   <i type="logical" name="LUSEW"> F  </i>
   <i name="ENCUTGW">     -2.00000000</i>
   <i name="ENCUTGWSOFT">     -2.00000000</i>
   <i name="ENCUTLF">     -1.00000000</i>
   <i type="int" name="LMAXMP2">    -1</i>
   <i name="SCISSOR">      0.00000000</i>
   <i type="int" name="NOMEGA">     0</i>
   <i type="int" name="NOMEGAR">     0</i>
   <i type="int" name="NBANDSGW">    -1</i>
   <i type="int" name="NBANDSO">    -1</i>
   <i type="int" name="NBANDSV">    -1</i>
   <i type="int" name="NELM">     1</i>
   <i type="int" name="NELMHF">     1</i>
   <i type="int" name="DIM">     3</i>
   <i type="int" name="ANTIRES">     0</i>
   <i name="OMEGAMAX">    -30.00000000</i>
   <i name="OMEGAMIN">    -30.00000000</i>
   <i name="OMEGATL">   -200.00000000</i>
   <i type="int" name="OMEGAGRID">     0</i>
   <i name="CSHIFT">     -0.10000000</i>
   <i type="logical" name="SELFENERGY"> F  </i>
   <i type="logical" name="LSPECTRAL"> F  </i>
   <i type="logical" name="LSPECTRALGW"> F  </i>
   <i type="logical" name="LSINGLES"> F  </i>
   <i type="logical" name="LFERMIGW"> F  </i>
   <i type="logical" name="ODDONLYGW"> F  </i>
   <i type="logical" name="EVENONLYGW"> F  </i>
   <i type="int" name="NKREDLFX">     1</i>
   <i type="int" name="NKREDLFY">     1</i>
   <i type="int" name="NKREDLFZ">     1</i>
   <i type="int" name="MAXMEM">  1800</i>
   <i type="int" name="TELESCOPE">     0</i>
   <i type="int" name="TAUPAR">     1</i>
   <i type="int" name="OMEGAPAR">    -1</i>
   <i name="LAMBDA">      1.00000000</i>
  </separator>
  <separator name="External order field" >
   <i name="OFIELD_KAPPA">      0.00000000</i>
   <v name="OFIELD_K">      0.00000000      0.00000000      0.00000000</v>
   <i name="OFIELD_Q6_NEAR">      0.00000000</i>
   <i name="OFIELD_Q6_FAR">      0.00000000</i>
   <i name="OFIELD_A">      0.00000000</i>
  </separator>
 </parameters>
 <atominfo>
  <atoms>      64 </atoms>
  <types>       1 </types>
  <array name="atoms" >
   <dimension dim="1">ion</dimension>
   <field type="string">element</field>
   <field type="int">atomtype</field>
   <set>
    <rc><c>Si</c><c>   1</c></rc>
    <rc><c>Si</c><c>   1</c></rc>
    <rc><c>Si</c><c>   1</c></rc>
    <rc><c>Si</c><c>   1</c></rc>
    <rc><c>Si</c><c>   1</c></rc>
    <rc><c>Si</c><c>   1</c></rc>
    <rc><c>Si</c><c>   1</c></rc>
    <rc><c>Si</c><c>   1</c></rc>
    <rc><c>Si</c><c>   1</c></rc>
    <rc><c>Si</c><c>   1</c></rc>
    <rc><c>Si</c><c>   1</c></rc>
    <rc><c>Si</c><c>   1</c></rc>
    <rc><c>Si</c><c>   1</c></rc>
    <rc><c>Si</c><c>   1</c></rc>
    <rc><c>Si</c><c>   1</c></rc>
    <rc><c>Si</c><c>   1</c></rc>
    <rc><c>Si</c><c>   1</c></rc>
    <rc><c>Si</c><c>   1</c></rc>
    <rc><c>Si</c><c>   1</c></rc>
    <rc><c>Si</c><c>   1</c></rc>
    <rc><c>Si</c><c>   1</c></rc>
    <rc><c>Si</c><c>   1</c></rc>
    <rc><c>Si</c><c>   1</c></rc>
    <rc><c>Si</c><c>   1</c></rc>
    <rc><c>Si</c><c>   1</c></rc>
    <rc><c>Si</c><c>   1</c></rc>
    <rc><c>Si</c><c>   1</c></rc>
    <rc><c>Si</c><c>   1</c></rc>
    <rc><c>Si</c><c>   1</c></rc>
    <rc><c>Si</c><c>   1</c></rc>
    <rc><c>Si</c><c>   1</c></rc>
    <rc><c>Si</c><c>   1</c></rc>
    <rc><c>Si</c><c>   1</c></rc>
    <rc><c>Si</c><c>   1</c></rc>
    <rc><c>Si</c><c>   1</c></rc>
    <rc><c>Si</c><c>   1</c></rc>
    <rc><c>Si</c><c>   1</c></rc>
    <rc><c>Si</c><c>   1</c></rc>
    <rc><c>Si</c><c>   1</c></rc>
    <rc><c>Si</c><c>   1</c></rc>
    <rc><c>Si</c><c>   1</c></rc>
    <rc><c>Si</c><c>   1</c></rc>
    <rc><c>Si</c><c>   1</c></rc>
    <rc><c>Si</c><c>   1</c></rc>
    <rc><c>Si</c><c>   1</c></rc>
    <rc><c>Si</c><c>   1</c></rc>
    <rc><c>Si</c><c>   1</c></rc>
    <rc><c>Si</c><c>   1</c></rc>
    <rc><c>Si</c><c>   1</c></rc>
    <rc><c>Si</c><c>   1</c></rc>
    <rc><c>Si</c><c>   1</c></rc>
    <rc><c>Si</c><c>   1</c></rc>
    <rc><c>Si</c><c>   1</c></rc>
    <rc><c>Si</c><c>   1</c></rc>
    <rc><c>Si</c><c>   1</c></rc>
    <rc><c>Si</c><c>   1</c></rc>
    <rc><c>Si</c><c>   1</c></rc>
    <rc><c>Si</c><c>   1</c></rc>
    <rc><c>Si</c><c>   1</c></rc>
    <rc><c>Si</c><c>   1</c></rc>
    <rc><c>Si</c><c>   1</c></rc>
    <rc><c>Si</c><c>   1</c></rc>
    <rc><c>Si</c><c>   1</c></rc>
    <rc><c>Si</c><c>   1</c></rc>
   </set>
  </array>
  <array name="atomtypes" >
   <dimension dim="1">type</dimension>
   <field type="int">atomspertype</field>
   <field type="string">element</field>
   <field>mass</field>
   <field>valence</field>
   <field type="string">pseudopotential</field>
   <set>
    <rc><c>  64</c><c>Si</c><c>     28.08500000</c><c>      4.00000000</c><c>  PAW_PBE Si 05Jan2001                  </c></rc>
   </set>
  </array>
 </atominfo>
 <structure name="initialpos" >
  <crystal>
   <varray name="basis" >
    <v>      10.93252578       0.00000000       0.00000000 </v>
    <v>       0.00000000      10.93252578       0.00000000 </v>
    <v>       0.00000000       0.00000000      10.93252578 </v>
   </varray>
   <i name="volume">   1306.65679237 </i>
   <varray name="rec_basis" >
    <v>       0.09147017       0.00000000       0.00000000 </v>
    <v>       0.00000000       0.09147017       0.00000000 </v>
    <v>       0.00000000       0.00000000       0.09147017 </v>
   </varray>
  </crystal>
  <varray name="positions" >
   <v>       0.44024411       0.43750000       0.43750000 </v>
   <v>       0.93750000       0.43750000       0.43750000 </v>
   <v>       0.43750000       0.93750000       0.43750000 </v>
   <v>       0.93750000       0.93750000       0.43750000 </v>
   <v>       0.43750000       0.43750000       0.93750000 </v>
   <v>       0.93750000       0.43750000       0.93750000 </v>
   <v>       0.43750000       0.93750000       0.93750000 </v>
   <v>       0.93750000       0.93750000       0.93750000 </v>
   <v>       0.43750000       0.18750000       0.18750000 </v>
   <v>       0.93750000       0.18750000       0.18750000 </v>
   <v>       0.43750000       0.68750000       0.18750000 </v>
   <v>       0.93750000       0.68750000       0.18750000 </v>
   <v>       0.43750000       0.18750000       0.68750000 </v>
   <v>       0.93750000       0.18750000       0.68750000 </v>
   <v>       0.43750000       0.68750000       0.68750000 </v>
   <v>       0.93750000       0.68750000       0.68750000 </v>
   <v>       0.18750000       0.43750000       0.18750000 </v>
   <v>       0.69024411       0.43750000       0.18750000 </v>
   <v>       0.18750000       0.93750000       0.18750000 </v>
   <v>       0.68750000       0.93750000       0.18750000 </v>
   <v>       0.18750000       0.43750000       0.68750000 </v>
   <v>       0.68750000       0.43750000       0.68750000 </v>
   <v>       0.18750000       0.93750000       0.68750000 </v>
   <v>       0.68750000       0.93750000       0.68750000 </v>
   <v>       0.18750000       0.18750000       0.43750000 </v>
   <v>       0.68750000       0.18750000       0.43750000 </v>
   <v>       0.18750000       0.68750000       0.43750000 </v>
   <v>       0.68750000       0.68750000       0.43750000 </v>
   <v>       0.18750000       0.18750000       0.93750000 </v>
   <v>       0.68750000       0.18750000       0.93750000 </v>
   <v>       0.18750000       0.68750000       0.93750000 </v>
   <v>       0.68750000       0.68750000       0.93750000 </v>
   <v>       0.06250000       0.06250000       0.06250000 </v>
   <v>       0.56250000       0.06250000       0.06250000 </v>
   <v>       0.06250000       0.56250000       0.06250000 </v>
   <v>       0.56250000       0.56250000       0.06250000 </v>
   <v>       0.06250000       0.06250000       0.56250000 </v>
   <v>       0.56250000       0.06250000       0.56250000 </v>
   <v>       0.06250000       0.56250000       0.56250000 </v>
   <v>       0.56250000       0.56250000       0.56250000 </v>
   <v>       0.06250000       0.31250000       0.31250000 </v>
   <v>       0.56250000       0.31250000       0.31250000 </v>
   <v>       0.06250000       0.81250000       0.31250000 </v>
   <v>       0.56250000       0.81250000       0.31250000 </v>
   <v>       0.06250000       0.31250000       0.81250000 </v>
   <v>       0.56250000       0.31250000       0.81250000 </v>
   <v>       0.06250000       0.81250000       0.81250000 </v>
   <v>       0.56250000       0.81250000       0.81250000 </v>
   <v>       0.31250000       0.06250000       0.31250000 </v>
   <v>       0.81250000       0.06250000       0.31250000 </v>
   <v>       0.31250000       0.56250000       0.31250000 </v>
   <v>       0.81250000       0.56250000       0.31250000 </v>
   <v>       0.31250000       0.06250000       0.81250000 </v>
   <v>       0.81250000       0.06250000       0.81250000 </v>
   <v>       0.31250000       0.56250000       0.81250000 </v>
   <v>       0.81250000       0.56250000       0.81250000 </v>
   <v>       0.31250000       0.31250000       0.06250000 </v>
   <v>       0.81250000       0.31250000       0.06250000 </v>
   <v>       0.31250000       0.81250000       0.06250000 </v>
   <v>       0.81250000       0.81250000       0.06250000 </v>
   <v>       0.31250000       0.31250000       0.56250000 </v>
   <v>       0.81250000       0.31250000       0.56250000 </v>
   <v>       0.31250000       0.81250000       0.56250000 </v>
   <v>       0.81250000       0.81250000       0.56250000 </v>
  </varray>
 </structure>
 <calculation>
  <scstep>
   <time name="dav">    5.48    5.48</time>
   <time name="total">    5.74    5.76</time>
   <energy>
    <i name="alphaZ">    105.52440745 </i>
    <i name="ewald">  -7265.47385929 </i>
    <i name="hartreedc">   -361.71009254 </i>
    <i name="XCdc">   -597.75717548 </i>
    <i name="pawpsdc">   5639.92317535 </i>
    <i name="pawaedc">  -4513.95313856 </i>
    <i name="eentropy">     -0.00132955 </i>
    <i name="bandstr">    856.88148503 </i>
    <i name="atom">   6596.14994790 </i>
    <i name="e_fr_energy">    459.58342032 </i>
    <i name="e_wo_entrp">    459.58474987 </i>
    <i name="e_0_energy">    459.58408510 </i>
   </energy>
  </scstep>
  <scstep>
   <time name="dav">    6.32    6.32</time>
   <time name="total">    6.32    6.33</time>
   <energy>
    <i name="e_fr_energy">   -300.08543273 </i>
    <i name="e_wo_entrp">   -300.08543273 </i>
    <i name="e_0_energy">   -300.08543273 </i>
   </energy>
  </scstep>
  <scstep>
   <time name="dav">    6.36    6.37</time>
   <time name="total">    6.36    6.37</time>
   <energy>
    <i name="e_fr_energy">   -350.93699565 </i>
    <i name="e_wo_entrp">   -350.93699565 </i>
    <i name="e_0_energy">   -350.93699565 </i>
   </energy>
  </scstep>
  <scstep>
   <time name="dav">    6.33    6.33</time>
   <time name="total">    6.33    6.34</time>
   <energy>
    <i name="e_fr_energy">   -352.26673145 </i>
    <i name="e_wo_entrp">   -352.26673145 </i>
    <i name="e_0_energy">   -352.26673145 </i>
   </energy>
  </scstep>
  <scstep>
   <time name="dav">    6.33    6.33</time>
   <time name="total">    6.63    6.64</time>
   <energy>
    <i name="e_fr_energy">   -352.31349025 </i>
    <i name="e_wo_entrp">   -352.31349025 </i>
    <i name="e_0_energy">   -352.31349025 </i>
   </energy>
  </scstep>
  <scstep>
   <time name="dav">    6.17    6.19</time>
   <time name="total">    6.74    6.78</time>
   <energy>
    <i name="e_fr_energy">   -348.58459935 </i>
    <i name="e_wo_entrp">   -348.58459935 </i>
    <i name="e_0_energy">   -348.58459935 </i>
   </energy>
  </scstep>
  <scstep>
   <time name="dav">    6.07    6.09</time>
   <time name="total">    6.64    6.66</time>
   <energy>
    <i name="e_fr_energy">   -346.87200458 </i>
    <i name="e_wo_entrp">   -346.87200458 </i>
    <i name="e_0_energy">   -346.87200458 </i>
   </energy>
  </scstep>
  <scstep>
   <time name="dav">    6.27    6.29</time>
   <time name="total">    6.84    6.87</time>
   <energy>
    <i name="e_fr_energy">   -346.89831621 </i>
    <i name="e_wo_entrp">   -346.89831621 </i>
    <i name="e_0_energy">   -346.89831621 </i>
   </energy>
  </scstep>
  <scstep>
   <time name="dav">    6.42    6.43</time>
   <time name="total">    6.99    7.01</time>
   <energy>
    <i name="e_fr_energy">   -346.90504461 </i>
    <i name="e_wo_entrp">   -346.90504461 </i>
    <i name="e_0_energy">   -346.90504461 </i>
   </energy>
  </scstep>
  <scstep>
   <time name="dav">    6.01    6.02</time>
   <time name="total">    6.58    6.60</time>
   <energy>
    <i name="e_fr_energy">   -346.90709084 </i>
    <i name="e_wo_entrp">   -346.90709084 </i>
    <i name="e_0_energy">   -346.90709084 </i>
   </energy>
  </scstep>
  <scstep>
   <time name="dav">    6.22    6.23</time>
   <time name="total">    6.80    6.81</time>
   <energy>
    <i name="e_fr_energy">   -346.90706994 </i>
    <i name="e_wo_entrp">   -346.90706994 </i>
    <i name="e_0_energy">   -346.90706994 </i>
   </energy>
  </scstep>
  <scstep>
   <time name="dav">    6.27    6.27</time>
   <time name="total">    6.84    6.85</time>
   <energy>
    <i name="e_fr_energy">   -346.90708432 </i>
    <i name="e_wo_entrp">   -346.90708432 </i>
    <i name="e_0_energy">   -346.90708432 </i>
   </energy>
  </scstep>
  <scstep>
   <time name="dav">    6.15    6.16</time>
   <time name="total">    6.72    6.73</time>
   <energy>
    <i name="e_fr_energy">   -346.90708489 </i>
    <i name="e_wo_entrp">   -346.90708489 </i>
    <i name="e_0_energy">   -346.90708489 </i>
   </energy>
  </scstep>
  <scstep>
   <time name="dav">    6.34    6.35</time>
   <time name="total">    6.92    6.93</time>
   <energy>
    <i name="e_fr_energy">   -346.90708547 </i>
    <i name="e_wo_entrp">   -346.90708547 </i>
    <i name="e_0_energy">   -346.90708547 </i>
   </energy>
  </scstep>
  <scstep>
   <time name="dav">    5.17    5.17</time>
   <time name="total">    5.73    6.00</time>
   <energy>
    <i name="e_fr_energy">   -346.90708524 </i>
    <i name="e_wo_entrp">   -346.90708524 </i>
    <i name="e_0_energy">   -346.90708524 </i>
   </energy>
  </scstep>
  <scstep>
   <time name="dav">    4.29    4.29</time>
   <time name="total">    4.86    4.87</time>
   <energy>
    <i name="e_fr_energy">   -346.90708531 </i>
    <i name="e_wo_entrp">   -346.90708531 </i>
    <i name="e_0_energy">   -346.90708531 </i>
   </energy>
  </scstep>
  <scstep>
   <time name="dav">    4.25    4.25</time>
   <time name="total">    4.82    4.83</time>
   <energy>
    <i name="e_fr_energy">   -346.90708530 </i>
    <i name="e_wo_entrp">   -346.90708530 </i>
    <i name="e_0_energy">   -346.90708530 </i>
   </energy>
  </scstep>
  <scstep>
   <time name="dav">    4.25    4.25</time>
   <time name="total">    4.81    4.83</time>
   <energy>
    <i name="e_fr_energy">   -346.90708531 </i>
    <i name="e_wo_entrp">   -346.90708531 </i>
    <i name="e_0_energy">   -346.90708531 </i>
   </energy>
  </scstep>
  <scstep>
   <time name="dav">    4.24    4.25</time>
   <time name="total">    4.51    4.52</time>
   <energy>
    <i name="alphaZ">    105.52440745 </i>
    <i name="ewald">  -7265.47385929 </i>
    <i name="hartreedc">   -485.14091335 </i>
    <i name="XCdc">   -577.61230590 </i>
    <i name="pawpsdc">  27883.41311297 </i>
    <i name="pawaedc"> -26764.13104076 </i>
    <i name="eentropy">      0.00000000 </i>
    <i name="bandstr">    160.36356566 </i>
    <i name="atom">   6596.14994790 </i>
    <i name="e_fr_energy">   -346.90708532 </i>
    <i name="e_wo_entrp">   -346.90708532 </i>
    <i name="e_0_energy">   -346.90708532 </i>
   </energy>
  </scstep>
  <structure>
   <crystal>
    <varray name="basis" >
     <v>      10.93252578       0.00000000       0.00000000 </v>
     <v>       0.00000000      10.93252578       0.00000000 </v>
     <v>       0.00000000       0.00000000      10.93252578 </v>
    </varray>
    <i name="volume">   1306.65679237 </i>
    <varray name="rec_basis" >
     <v>       0.09147017       0.00000000       0.00000000 </v>
     <v>       0.00000000       0.09147017       0.00000000 </v>
     <v>       0.00000000       0.00000000       0.09147017 </v>
    </varray>
   </crystal>
   <varray name="positions" >
    <v>       0.44024411       0.43750000       0.43750000 </v>
    <v>       0.93750000       0.43750000       0.43750000 </v>
    <v>       0.43750000       0.93750000       0.43750000 </v>
    <v>       0.93750000       0.93750000       0.43750000 </v>
    <v>       0.43750000       0.43750000       0.93750000 </v>
    <v>       0.93750000       0.43750000       0.93750000 </v>
    <v>       0.43750000       0.93750000       0.93750000 </v>
    <v>       0.93750000       0.93750000       0.93750000 </v>
    <v>       0.43750000       0.18750000       0.18750000 </v>
    <v>       0.93750000       0.18750000       0.18750000 </v>
    <v>       0.43750000       0.68750000       0.18750000 </v>
    <v>       0.93750000       0.68750000       0.18750000 </v>
    <v>       0.43750000       0.18750000       0.68750000 </v>
    <v>       0.93750000       0.18750000       0.68750000 </v>
    <v>       0.43750000       0.68750000       0.68750000 </v>
    <v>       0.93750000       0.68750000       0.68750000 </v>
    <v>       0.18750000       0.43750000       0.18750000 </v>
    <v>       0.69024411       0.43750000       0.18750000 </v>
    <v>       0.18750000       0.93750000       0.18750000 </v>
    <v>       0.68750000       0.93750000       0.18750000 </v>
    <v>       0.18750000       0.43750000       0.68750000 </v>
    <v>       0.68750000       0.43750000       0.68750000 </v>
    <v>       0.18750000       0.93750000       0.68750000 </v>
    <v>       0.68750000       0.93750000       0.68750000 </v>
    <v>       0.18750000       0.18750000       0.43750000 </v>
    <v>       0.68750000       0.18750000       0.43750000 </v>
    <v>       0.18750000       0.68750000       0.43750000 </v>
    <v>       0.68750000       0.68750000       0.43750000 </v>
    <v>       0.18750000       0.18750000       0.93750000 </v>
    <v>       0.68750000       0.18750000       0.93750000 </v>
    <v>       0.18750000       0.68750000       0.93750000 </v>
    <v>       0.68750000       0.68750000       0.93750000 </v>
    <v>       0.06250000       0.06250000       0.06250000 </v>
    <v>       0.56250000       0.06250000       0.06250000 </v>
    <v>       0.06250000       0.56250000       0.06250000 </v>
    <v>       0.56250000       0.56250000       0.06250000 </v>
    <v>       0.06250000       0.06250000       0.56250000 </v>
    <v>       0.56250000       0.06250000       0.56250000 </v>
    <v>       0.06250000       0.56250000       0.56250000 </v>
    <v>       0.56250000       0.56250000       0.56250000 </v>
    <v>       0.06250000       0.31250000       0.31250000 </v>
    <v>       0.56250000       0.31250000       0.31250000 </v>
    <v>       0.06250000       0.81250000       0.31250000 </v>
    <v>       0.56250000       0.81250000       0.31250000 </v>
    <v>       0.06250000       0.31250000       0.81250000 </v>
    <v>       0.56250000       0.31250000       0.81250000 </v>
    <v>       0.06250000       0.81250000       0.81250000 </v>
    <v>       0.56250000       0.81250000       0.81250000 </v>
    <v>       0.31250000       0.06250000       0.31250000 </v>
    <v>       0.81250000       0.06250000       0.31250000 </v>
    <v>       0.31250000       0.56250000       0.31250000 </v>
    <v>       0.81250000       0.56250000       0.31250000 </v>
    <v>       0.31250000       0.06250000       0.81250000 </v>
    <v>       0.81250000       0.06250000       0.81250000 </v>
    <v>       0.31250000       0.56250000       0.81250000 </v>
    <v>       0.81250000       0.56250000       0.81250000 </v>
    <v>       0.31250000       0.31250000       0.06250000 </v>
    <v>       0.81250000       0.31250000       0.06250000 </v>
    <v>       0.31250000       0.81250000       0.06250000 </v>
    <v>       0.81250000       0.81250000       0.06250000 </v>
    <v>       0.31250000       0.31250000       0.56250000 </v>
    <v>       0.81250000       0.31250000       0.56250000 </v>
    <v>       0.31250000       0.81250000       0.56250000 </v>
    <v>       0.81250000       0.81250000       0.56250000 </v>
   </varray>
  </structure>
  <varray name="forces" >
   <v>      -0.38133209       0.00258979      -0.00575180 </v>
   <v>       0.00635193       0.00277860       0.00569034 </v>
   <v>       0.00233144       0.00022926       0.00186177 </v>
   <v>       0.00084067       0.00023056      -0.00184874 </v>
   <v>       0.00695793      -0.00267013       0.00555552 </v>
   <v>       0.00562599      -0.00277051      -0.00569294 </v>
   <v>      -0.01053427      -0.00022803      -0.00186040 </v>
   <v>       0.00159671      -0.00022956       0.00184715 </v>
   <v>      -0.00721079       0.00838413       0.00009496 </v>
   <v>       0.00576968      -0.00546482      -0.00253908 </v>
   <v>      -0.00712292      -0.00289701       0.00001191 </v>
   <v>       0.00580919       0.00592459       0.00254165 </v>
   <v>      -0.01175181      -0.00452260       0.00243517 </v>
   <v>       0.00102257       0.00161174       0.00000333 </v>
   <v>      -0.01186799      -0.00091862      -0.00253987 </v>
   <v>       0.00099702      -0.00207506       0.00000280 </v>
   <v>       0.00619724      -0.00266217       0.00556002 </v>
   <v>      -0.38148689      -0.00283822      -0.00550823 </v>
   <v>       0.00084540      -0.00022919      -0.00186047 </v>
   <v>       0.00234217      -0.00023047       0.00184724 </v>
   <v>       0.00547130       0.00267011      -0.00555784 </v>
   <v>       0.00712704       0.00277037       0.00569512 </v>
   <v>       0.00159536       0.00023039       0.00186142 </v>
   <v>      -0.01052886       0.00023176      -0.00184883 </v>
   <v>       0.00565432       0.00532558      -0.00244114 </v>
   <v>      -0.00699553      -0.00830183      -0.00010049 </v>
   <v>       0.00561513      -0.00578600       0.00243905 </v>
   <v>      -0.00708522       0.00291578      -0.00000800 </v>
   <v>       0.00098982      -0.00163726      -0.00000327 </v>
   <v>      -0.01186733       0.00462323       0.00254197 </v>
   <v>       0.00101506       0.00209358      -0.00000309 </v>
   <v>      -0.01175162       0.00080953      -0.00243733 </v>
   <v>       0.00012989       0.00011192       0.00146011 </v>
   <v>       0.00477618      -0.00020265       0.00193820 </v>
   <v>       0.00033906      -0.00025483       0.00150217 </v>
   <v>       0.09159939      -0.05974097       0.06188535 </v>
   <v>       0.00007956      -0.00014887       0.00140113 </v>
   <v>       0.00466395       0.00025012       0.00188090 </v>
   <v>       0.00038813       0.00019838       0.00155182 </v>
   <v>       0.09437140       0.06487305       0.06699848 </v>
   <v>      -0.00055304      -0.00000305      -0.00181385 </v>
   <v>       0.18887025      -0.00513779      -0.12706027 </v>
   <v>       0.00128027       0.00003924      -0.00136041 </v>
   <v>      -0.00290827      -0.00003812      -0.00245818 </v>
   <v>       0.00128034       0.00006185      -0.00124000 </v>
   <v>      -0.00290813       0.00003673      -0.00181390 </v>
   <v>      -0.00107046      -0.00000853      -0.00150053 </v>
   <v>       0.01234890      -0.00000993      -0.00136142 </v>
   <v>      -0.00081376      -0.00028653       0.00190836 </v>
   <v>      -0.00081396       0.00028718       0.00191103 </v>
   <v>       0.09278962      -0.06004687       0.06188525 </v>
   <v>       0.09553514       0.06520824       0.06699795 </v>
   <v>       0.00559461       0.00008368       0.00143323 </v>
   <v>       0.00568400      -0.00005570       0.00142906 </v>
   <v>      -0.00081722      -0.00059694       0.00149067 </v>
   <v>      -0.00081087       0.00050059       0.00156326 </v>
   <v>      -0.00170841       0.00033940      -0.00179952 </v>
   <v>       0.09649964      -0.06539611      -0.06672832 </v>
   <v>       0.00675257       0.00007094      -0.00133500 </v>
   <v>      -0.00200861      -0.00018094      -0.00195724 </v>
   <v>       0.09365503       0.06031228      -0.06157952 </v>
   <v>      -0.00175252      -0.00030476      -0.00182820 </v>
   <v>      -0.00197027       0.00013234      -0.00200157 </v>
   <v>       0.00687695      -0.00005089      -0.00138697 </v>
  </varray>
  <varray name="stress" >
   <v>      -0.01735037       0.00001275       0.00017234 </v>
   <v>       0.00001273       0.02029205       0.66968383 </v>
   <v>       0.00017231       0.66968382       0.02020403 </v>
  </varray>
  <energy>
   <i name="e_fr_energy">   -346.90708532 </i>
   <i name="e_wo_entrp">   -346.90708532 </i>
   <i name="e_0_energy">      0.00000000 </i>
  </energy>
  <time name="totalsc">  128.84  129.44</time>
  <eigenvalues>
   <array>
    <dimension dim="1">band</dimension>
    <dimension dim="2">kpoint</dimension>
    <dimension dim="3">spin</dimension>
    <field>eigene</field>
    <field>occ</field>
    <set>
     <set comment="spin 1">
      <set comment="kpoint 1">
       <r>   -5.9931    1.0000 </r>
       <r>   -5.4673    1.0000 </r>
       <r>   -5.4649    1.0000 </r>
       <r>   -5.4623    1.0000 </r>
       <r>   -4.9680    1.0000 </r>
       <r>   -4.9655    1.0000 </r>
       <r>   -4.9629    1.0000 </r>
       <r>   -4.5312    1.0000 </r>
       <r>   -4.4346    1.0000 </r>
       <r>   -4.4320    1.0000 </r>
       <r>   -4.4296    1.0000 </r>
       <r>   -4.0255    1.0000 </r>
       <r>   -4.0197    1.0000 </r>
       <r>   -4.0164    1.0000 </r>
       <r>   -4.0149    1.0000 </r>
       <r>   -4.0130    1.0000 </r>
       <r>   -4.0120    1.0000 </r>
       <r>   -3.8268    1.0000 </r>
       <r>   -3.8262    1.0000 </r>
       <r>   -3.8220    1.0000 </r>
       <r>   -3.3291    1.0000 </r>
       <r>   -3.3270    1.0000 </r>
       <r>   -3.3236    1.0000 </r>
       <r>   -2.9628    1.0000 </r>
       <r>   -2.9600    1.0000 </r>
       <r>   -2.9558    1.0000 </r>
       <r>   -2.7997    1.0000 </r>
       <r>   -2.7934    1.0000 </r>
       <r>   -2.7910    1.0000 </r>
       <r>   -2.7895    1.0000 </r>
       <r>   -2.7869    1.0000 </r>
       <r>   -2.7862    1.0000 </r>
       <r>   -1.2594    1.0000 </r>
       <r>   -1.2501    1.0000 </r>
       <r>   -1.2487    1.0000 </r>
       <r>   -1.2464    1.0000 </r>
       <r>   -1.2439    1.0000 </r>
       <r>   -1.2423    1.0000 </r>
       <r>   -1.1545    1.0000 </r>
       <r>   -1.1496    1.0000 </r>
       <r>   -1.1465    1.0000 </r>
       <r>   -1.0371    1.0000 </r>
       <r>   -1.0281    1.0000 </r>
       <r>   -1.0276    1.0000 </r>
       <r>   -0.9558    1.0000 </r>
       <r>   -0.9512    1.0000 </r>
       <r>   -0.9454    1.0000 </r>
       <r>   -0.2481    1.0000 </r>
       <r>   -0.1688    1.0000 </r>
       <r>   -0.1614    1.0000 </r>
       <r>   -0.1599    1.0000 </r>
       <r>   -0.1567    1.0000 </r>
       <r>   -0.1542    1.0000 </r>
       <r>   -0.1512    1.0000 </r>
       <r>    0.7064    1.0000 </r>
       <r>    0.7134    1.0000 </r>
       <r>    0.7161    1.0000 </r>
       <r>    1.0422    1.0000 </r>
       <r>    1.0489    1.0000 </r>
       <r>    1.0504    1.0000 </r>
       <r>    1.6529    1.0000 </r>
       <r>    1.6539    1.0000 </r>
       <r>    1.6571    1.0000 </r>
       <r>    1.6578    1.0000 </r>
       <r>    1.6591    1.0000 </r>
       <r>    1.6618    1.0000 </r>
       <r>    1.7143    1.0000 </r>
       <r>    1.7182    1.0000 </r>
       <r>    1.7187    1.0000 </r>
       <r>    2.2631    1.0000 </r>
       <r>    2.2667    1.0000 </r>
       <r>    2.2678    1.0000 </r>
       <r>    2.3674    1.0000 </r>
       <r>    2.3689    1.0000 </r>
       <r>    2.3706    1.0000 </r>
       <r>    2.3722    1.0000 </r>
       <r>    2.3760    1.0000 </r>
       <r>    2.3778    1.0000 </r>
       <r>    2.4229    1.0000 </r>
       <r>    2.4276    1.0000 </r>
       <r>    2.4306    1.0000 </r>
       <r>    2.7273    1.0000 </r>
       <r>    2.7336    1.0000 </r>
       <r>    2.7348    1.0000 </r>
       <r>    2.7359    1.0000 </r>
       <r>    2.7377    1.0000 </r>
       <r>    2.7395    1.0000 </r>
       <r>    2.9991    1.0000 </r>
       <r>    2.9994    1.0000 </r>
       <r>    3.0029    1.0000 </r>
       <r>    3.0097    1.0000 </r>
       <r>    3.0169    1.0000 </r>
       <r>    3.0173    1.0000 </r>
       <r>    3.3566    1.0000 </r>
       <r>    3.3608    1.0000 </r>
       <r>    3.3629    1.0000 </r>
       <r>    3.3792    1.0000 </r>
       <r>    3.3810    1.0000 </r>
       <r>    3.3840    1.0000 </r>
       <r>    3.4648    1.0000 </r>
       <r>    3.4677    1.0000 </r>
       <r>    3.4707    1.0000 </r>
       <r>    3.7325    1.0000 </r>
       <r>    3.7348    1.0000 </r>
       <r>    3.7385    1.0000 </r>
       <r>    3.7410    1.0000 </r>
       <r>    3.7419    1.0000 </r>
       <r>    3.7432    1.0000 </r>
       <r>    3.7788    1.0000 </r>
       <r>    3.7819    1.0000 </r>
       <r>    3.7852    1.0000 </r>
       <r>    4.0366    1.0000 </r>
       <r>    4.0981    1.0000 </r>
       <r>    4.0990    1.0000 </r>
       <r>    4.1036    1.0000 </r>
       <r>    4.3394    1.0000 </r>
       <r>    4.3427    1.0000 </r>
       <r>    4.3465    1.0000 </r>
       <r>    4.3971    1.0000 </r>
       <r>    4.4018    1.0000 </r>
       <r>    4.4052    1.0000 </r>
       <r>    4.5594    1.0000 </r>
       <r>    4.5686    1.0000 </r>
       <r>    4.8685    1.0000 </r>
       <r>    4.8722    1.0000 </r>
       <r>    4.8774    1.0000 </r>
       <r>    5.3466    1.0000 </r>
       <r>    5.3575    1.0000 </r>
       <r>    6.5636    0.0000 </r>
       <r>    6.5636    0.0000 </r>
       <r>    6.5678    0.0000 </r>
       <r>    7.0006    0.0000 </r>
       <r>    7.0062    0.0000 </r>
       <r>    7.0087    0.0000 </r>
       <r>    7.2351    0.0000 </r>
       <r>    7.4879    0.0000 </r>
       <r>    7.4928    0.0000 </r>
       <r>    7.4961    0.0000 </r>
       <r>    7.6145    0.0000 </r>
       <r>    7.6196    0.0000 </r>
       <r>    7.6205    0.0000 </r>
       <r>    7.7776    0.0000 </r>
       <r>    7.7803    0.0000 </r>
       <r>    7.7830    0.0000 </r>
       <r>    7.7996    0.0000 </r>
       <r>    7.8006    0.0000 </r>
       <r>    7.8055    0.0000 </r>
       <r>    8.0209    0.0000 </r>
       <r>    8.0264    0.0000 </r>
       <r>    8.0284    0.0000 </r>
       <r>    8.0304    0.0000 </r>
       <r>    8.0321    0.0000 </r>
       <r>    8.0347    0.0000 </r>
       <r>    8.0835    0.0000 </r>
       <r>    8.2923    0.0000 </r>
       <r>    8.2952    0.0000 </r>
       <r>    8.2980    0.0000 </r>
       <r>    8.4926    0.0000 </r>
       <r>    8.5005    0.0000 </r>
       <r>    8.5013    0.0000 </r>
       <r>    8.5035    0.0000 </r>
       <r>    8.5096    0.0000 </r>
       <r>    8.5197    0.0000 </r>
       <r>    8.5463    0.0000 </r>
      </set>
      <set comment="kpoint 2">
       <r>   -5.9931    1.0000 </r>
       <r>   -5.4692    1.0000 </r>
       <r>   -5.4638    1.0000 </r>
       <r>   -5.4616    1.0000 </r>
       <r>   -4.9696    1.0000 </r>
       <r>   -4.9645    1.0000 </r>
       <r>   -4.9622    1.0000 </r>
       <r>   -4.5312    1.0000 </r>
       <r>   -4.4366    1.0000 </r>
       <r>   -4.4312    1.0000 </r>
       <r>   -4.4286    1.0000 </r>
       <r>   -4.0255    1.0000 </r>
       <r>   -4.0203    1.0000 </r>
       <r>   -4.0160    1.0000 </r>
       <r>   -4.0153    1.0000 </r>
       <r>   -4.0128    1.0000 </r>
       <r>   -4.0114    1.0000 </r>
       <r>   -3.8267    1.0000 </r>
       <r>   -3.8263    1.0000 </r>
       <r>   -3.8219    1.0000 </r>
       <r>   -3.3312    1.0000 </r>
       <r>   -3.3266    1.0000 </r>
       <r>   -3.3221    1.0000 </r>
       <r>   -2.9628    1.0000 </r>
       <r>   -2.9600    1.0000 </r>
       <r>   -2.9558    1.0000 </r>
       <r>   -2.7998    1.0000 </r>
       <r>   -2.7938    1.0000 </r>
       <r>   -2.7906    1.0000 </r>
       <r>   -2.7895    1.0000 </r>
       <r>   -2.7869    1.0000 </r>
       <r>   -2.7860    1.0000 </r>
       <r>   -1.2592    1.0000 </r>
       <r>   -1.2504    1.0000 </r>
       <r>   -1.2482    1.0000 </r>
       <r>   -1.2470    1.0000 </r>
       <r>   -1.2435    1.0000 </r>
       <r>   -1.2423    1.0000 </r>
       <r>   -1.1544    1.0000 </r>
       <r>   -1.1497    1.0000 </r>
       <r>   -1.1465    1.0000 </r>
       <r>   -1.0374    1.0000 </r>
       <r>   -1.0280    1.0000 </r>
       <r>   -1.0277    1.0000 </r>
       <r>   -0.9586    1.0000 </r>
       <r>   -0.9477    1.0000 </r>
       <r>   -0.9459    1.0000 </r>
       <r>   -0.2481    1.0000 </r>
       <r>   -0.1689    1.0000 </r>
       <r>   -0.1614    1.0000 </r>
       <r>   -0.1598    1.0000 </r>
       <r>   -0.1582    1.0000 </r>
       <r>   -0.1531    1.0000 </r>
       <r>   -0.1508    1.0000 </r>
       <r>    0.7059    1.0000 </r>
       <r>    0.7144    1.0000 </r>
       <r>    0.7158    1.0000 </r>
       <r>    1.0417    1.0000 </r>
       <r>    1.0493    1.0000 </r>
       <r>    1.0503    1.0000 </r>
       <r>    1.6528    1.0000 </r>
       <r>    1.6536    1.0000 </r>
       <r>    1.6564    1.0000 </r>
       <r>    1.6578    1.0000 </r>
       <r>    1.6596    1.0000 </r>
       <r>    1.6618    1.0000 </r>
       <r>    1.7136    1.0000 </r>
       <r>    1.7184    1.0000 </r>
       <r>    1.7199    1.0000 </r>
       <r>    2.2632    1.0000 </r>
       <r>    2.2666    1.0000 </r>
       <r>    2.2679    1.0000 </r>
       <r>    2.3673    1.0000 </r>
       <r>    2.3685    1.0000 </r>
       <r>    2.3701    1.0000 </r>
       <r>    2.3722    1.0000 </r>
       <r>    2.3758    1.0000 </r>
       <r>    2.3776    1.0000 </r>
       <r>    2.4221    1.0000 </r>
       <r>    2.4289    1.0000 </r>
       <r>    2.4313    1.0000 </r>
       <r>    2.7273    1.0000 </r>
       <r>    2.7335    1.0000 </r>
       <r>    2.7346    1.0000 </r>
       <r>    2.7354    1.0000 </r>
       <r>    2.7383    1.0000 </r>
       <r>    2.7397    1.0000 </r>
       <r>    2.9990    1.0000 </r>
       <r>    2.9994    1.0000 </r>
       <r>    3.0028    1.0000 </r>
       <r>    3.0094    1.0000 </r>
       <r>    3.0170    1.0000 </r>
       <r>    3.0175    1.0000 </r>
       <r>    3.3559    1.0000 </r>
       <r>    3.3618    1.0000 </r>
       <r>    3.3626    1.0000 </r>
       <r>    3.3790    1.0000 </r>
       <r>    3.3811    1.0000 </r>
       <r>    3.3839    1.0000 </r>
       <r>    3.4649    1.0000 </r>
       <r>    3.4668    1.0000 </r>
       <r>    3.4714    1.0000 </r>
       <r>    3.7326    1.0000 </r>
       <r>    3.7350    1.0000 </r>
       <r>    3.7382    1.0000 </r>
       <r>    3.7411    1.0000 </r>
       <r>    3.7421    1.0000 </r>
       <r>    3.7430    1.0000 </r>
       <r>    3.7789    1.0000 </r>
       <r>    3.7808    1.0000 </r>
       <r>    3.7864    1.0000 </r>
       <r>    4.0366    1.0000 </r>
       <r>    4.0982    1.0000 </r>
       <r>    4.0989    1.0000 </r>
       <r>    4.1035    1.0000 </r>
       <r>    4.3395    1.0000 </r>
       <r>    4.3414    1.0000 </r>
       <r>    4.3474    1.0000 </r>
       <r>    4.3956    1.0000 </r>
       <r>    4.4037    1.0000 </r>
       <r>    4.4049    1.0000 </r>
       <r>    4.5593    1.0000 </r>
       <r>    4.5687    1.0000 </r>
       <r>    4.8687    1.0000 </r>
       <r>    4.8705    1.0000 </r>
       <r>    4.8790    1.0000 </r>
       <r>    5.3466    1.0000 </r>
       <r>    5.3574    1.0000 </r>
       <r>    6.5636    0.0000 </r>
       <r>    6.5636    0.0000 </r>
       <r>    6.5678    0.0000 </r>
       <r>    7.0008    0.0000 </r>
       <r>    7.0043    0.0000 </r>
       <r>    7.0104    0.0000 </r>
       <r>    7.2352    0.0000 </r>
       <r>    7.4880    0.0000 </r>
       <r>    7.4917    0.0000 </r>
       <r>    7.4973    0.0000 </r>
       <r>    7.6146    0.0000 </r>
       <r>    7.6195    0.0000 </r>
       <r>    7.6206    0.0000 </r>
       <r>    7.7776    0.0000 </r>
       <r>    7.7785    0.0000 </r>
       <r>    7.7838    0.0000 </r>
       <r>    7.8000    0.0000 </r>
       <r>    7.8006    0.0000 </r>
       <r>    7.8057    0.0000 </r>
       <r>    8.0209    0.0000 </r>
       <r>    8.0268    0.0000 </r>
       <r>    8.0292    0.0000 </r>
       <r>    8.0303    0.0000 </r>
       <r>    8.0315    0.0000 </r>
       <r>    8.0343    0.0000 </r>
       <r>    8.0835    0.0000 </r>
       <r>    8.2925    0.0000 </r>
       <r>    8.2941    0.0000 </r>
       <r>    8.2991    0.0000 </r>
       <r>    8.4933    0.0000 </r>
       <r>    8.5003    0.0000 </r>
       <r>    8.5025    0.0000 </r>
       <r>    8.5039    0.0000 </r>
       <r>    8.5098    0.0000 </r>
       <r>    8.5218    0.0000 </r>
       <r>    8.5393    0.0000 </r>
      </set>
      <set comment="kpoint 3">
       <r>   -5.9932    1.0000 </r>
       <r>   -5.4671    1.0000 </r>
       <r>   -5.4646    1.0000 </r>
       <r>   -5.4622    1.0000 </r>
       <r>   -4.9681    1.0000 </r>
       <r>   -4.9655    1.0000 </r>
       <r>   -4.9631    1.0000 </r>
       <r>   -4.5332    1.0000 </r>
       <r>   -4.4351    1.0000 </r>
       <r>   -4.4328    1.0000 </r>
       <r>   -4.4304    1.0000 </r>
       <r>   -4.0212    1.0000 </r>
       <r>   -4.0198    1.0000 </r>
       <r>   -4.0178    1.0000 </r>
       <r>   -4.0163    1.0000 </r>
       <r>   -4.0132    1.0000 </r>
       <r>   -4.0079    1.0000 </r>
       <r>   -3.8268    1.0000 </r>
       <r>   -3.8224    1.0000 </r>
       <r>   -3.8218    1.0000 </r>
       <r>   -3.3331    1.0000 </r>
       <r>   -3.3297    1.0000 </r>
       <r>   -3.3276    1.0000 </r>
       <r>   -2.9624    1.0000 </r>
       <r>   -2.9584    1.0000 </r>
       <r>   -2.9558    1.0000 </r>
       <r>   -2.7954    1.0000 </r>
       <r>   -2.7948    1.0000 </r>
       <r>   -2.7922    1.0000 </r>
       <r>   -2.7907    1.0000 </r>
       <r>   -2.7883    1.0000 </r>
       <r>   -2.7817    1.0000 </r>
       <r>   -1.2559    1.0000 </r>
       <r>   -1.2537    1.0000 </r>
       <r>   -1.2513    1.0000 </r>
       <r>   -1.2486    1.0000 </r>
       <r>   -1.2474    1.0000 </r>
       <r>   -1.2392    1.0000 </r>
       <r>   -1.1555    1.0000 </r>
       <r>   -1.1529    1.0000 </r>
       <r>   -1.1471    1.0000 </r>
       <r>   -1.0376    1.0000 </r>
       <r>   -1.0372    1.0000 </r>
       <r>   -1.0280    1.0000 </r>
       <r>   -0.9482    1.0000 </r>
       <r>   -0.9421    1.0000 </r>
       <r>   -0.9377    1.0000 </r>
       <r>   -0.2410    1.0000 </r>
       <r>   -0.1687    1.0000 </r>
       <r>   -0.1659    1.0000 </r>
       <r>   -0.1636    1.0000 </r>
       <r>   -0.1605    1.0000 </r>
       <r>   -0.1590    1.0000 </r>
       <r>   -0.1514    1.0000 </r>
       <r>    0.7123    1.0000 </r>
       <r>    0.7153    1.0000 </r>
       <r>    0.7220    1.0000 </r>
       <r>    1.0437    1.0000 </r>
       <r>    1.0455    1.0000 </r>
       <r>    1.0520    1.0000 </r>
       <r>    1.6521    1.0000 </r>
       <r>    1.6549    1.0000 </r>
       <r>    1.6564    1.0000 </r>
       <r>    1.6570    1.0000 </r>
       <r>    1.6598    1.0000 </r>
       <r>    1.6609    1.0000 </r>
       <r>    1.7130    1.0000 </r>
       <r>    1.7138    1.0000 </r>
       <r>    1.7180    1.0000 </r>
       <r>    2.2676    1.0000 </r>
       <r>    2.2689    1.0000 </r>
       <r>    2.2722    1.0000 </r>
       <r>    2.3641    1.0000 </r>
       <r>    2.3659    1.0000 </r>
       <r>    2.3696    1.0000 </r>
       <r>    2.3711    1.0000 </r>
       <r>    2.3728    1.0000 </r>
       <r>    2.3744    1.0000 </r>
       <r>    2.4190    1.0000 </r>
       <r>    2.4224    1.0000 </r>
       <r>    2.4268    1.0000 </r>
       <r>    2.7306    1.0000 </r>
       <r>    2.7322    1.0000 </r>
       <r>    2.7340    1.0000 </r>
       <r>    2.7351    1.0000 </r>
       <r>    2.7363    1.0000 </r>
       <r>    2.7424    1.0000 </r>
       <r>    2.9953    1.0000 </r>
       <r>    2.9991    1.0000 </r>
       <r>    2.9998    1.0000 </r>
       <r>    3.0096    1.0000 </r>
       <r>    3.0104    1.0000 </r>
       <r>    3.0170    1.0000 </r>
       <r>    3.3613    1.0000 </r>
       <r>    3.3630    1.0000 </r>
       <r>    3.3669    1.0000 </r>
       <r>    3.3848    1.0000 </r>
       <r>    3.3876    1.0000 </r>
       <r>    3.3899    1.0000 </r>
       <r>    3.4624    1.0000 </r>
       <r>    3.4655    1.0000 </r>
       <r>    3.4687    1.0000 </r>
       <r>    3.7394    1.0000 </r>
       <r>    3.7405    1.0000 </r>
       <r>    3.7416    1.0000 </r>
       <r>    3.7439    1.0000 </r>
       <r>    3.7471    1.0000 </r>
       <r>    3.7506    1.0000 </r>
       <r>    3.7756    1.0000 </r>
       <r>    3.7794    1.0000 </r>
       <r>    3.7834    1.0000 </r>
       <r>    4.0443    1.0000 </r>
       <r>    4.0922    1.0000 </r>
       <r>    4.0974    1.0000 </r>
       <r>    4.0979    1.0000 </r>
       <r>    4.3356    1.0000 </r>
       <r>    4.3395    1.0000 </r>
       <r>    4.3421    1.0000 </r>
       <r>    4.4060    1.0000 </r>
       <r>    4.4099    1.0000 </r>
       <r>    4.4155    1.0000 </r>
       <r>    4.5568    1.0000 </r>
       <r>    4.5666    1.0000 </r>
       <r>    4.8627    1.0000 </r>
       <r>    4.8678    1.0000 </r>
       <r>    4.8718    1.0000 </r>
       <r>    5.3422    1.0000 </r>
       <r>    5.3528    1.0000 </r>
       <r>    6.5590    0.0000 </r>
       <r>    6.5631    0.0000 </r>
       <r>    6.5633    0.0000 </r>
       <r>    7.0000    0.0000 </r>
       <r>    7.0027    0.0000 </r>
       <r>    7.0084    0.0000 </r>
       <r>    7.2323    0.0000 </r>
       <r>    7.4853    0.0000 </r>
       <r>    7.4885    0.0000 </r>
       <r>    7.4936    0.0000 </r>
       <r>    7.6186    0.0000 </r>
       <r>    7.6196    0.0000 </r>
       <r>    7.6245    0.0000 </r>
       <r>    7.7770    0.0000 </r>
       <r>    7.7789    0.0000 </r>
       <r>    7.7824    0.0000 </r>
       <r>    7.7975    0.0000 </r>
       <r>    7.8017    0.0000 </r>
       <r>    7.8023    0.0000 </r>
       <r>    8.0262    0.0000 </r>
       <r>    8.0286    0.0000 </r>
       <r>    8.0309    0.0000 </r>
       <r>    8.0328    0.0000 </r>
       <r>    8.0348    0.0000 </r>
       <r>    8.0399    0.0000 </r>
       <r>    8.0791    0.0000 </r>
       <r>    8.2919    0.0000 </r>
       <r>    8.2947    0.0000 </r>
       <r>    8.2976    0.0000 </r>
       <r>    8.4940    0.0000 </r>
       <r>    8.4993    0.0000 </r>
       <r>    8.5020    0.0000 </r>
       <r>    8.5045    0.0000 </r>
       <r>    8.5113    0.0000 </r>
       <r>    8.5174    0.0000 </r>
       <r>    8.5432    0.0000 </r>
      </set>
      <set comment="kpoint 4">
       <r>   -5.9932    1.0000 </r>
       <r>   -5.4680    1.0000 </r>
       <r>   -5.4656    1.0000 </r>
       <r>   -5.4604    1.0000 </r>
       <r>   -4.9688    1.0000 </r>
       <r>   -4.9664    1.0000 </r>
       <r>   -4.9613    1.0000 </r>
       <r>   -4.5332    1.0000 </r>
       <r>   -4.4363    1.0000 </r>
       <r>   -4.4336    1.0000 </r>
       <r>   -4.4285    1.0000 </r>
       <r>   -4.0215    1.0000 </r>
       <r>   -4.0200    1.0000 </r>
       <r>   -4.0174    1.0000 </r>
       <r>   -4.0167    1.0000 </r>
       <r>   -4.0126    1.0000 </r>
       <r>   -4.0076    1.0000 </r>
       <r>   -3.8268    1.0000 </r>
       <r>   -3.8224    1.0000 </r>
       <r>   -3.8217    1.0000 </r>
       <r>   -3.3349    1.0000 </r>
       <r>   -3.3300    1.0000 </r>
       <r>   -3.3256    1.0000 </r>
       <r>   -2.9624    1.0000 </r>
       <r>   -2.9584    1.0000 </r>
       <r>   -2.9558    1.0000 </r>
       <r>   -2.7956    1.0000 </r>
       <r>   -2.7948    1.0000 </r>
       <r>   -2.7922    1.0000 </r>
       <r>   -2.7911    1.0000 </r>
       <r>   -2.7879    1.0000 </r>
       <r>   -2.7815    1.0000 </r>
       <r>   -1.2561    1.0000 </r>
       <r>   -1.2542    1.0000 </r>
       <r>   -1.2505    1.0000 </r>
       <r>   -1.2491    1.0000 </r>
       <r>   -1.2471    1.0000 </r>
       <r>   -1.2391    1.0000 </r>
       <r>   -1.1555    1.0000 </r>
       <r>   -1.1530    1.0000 </r>
       <r>   -1.1470    1.0000 </r>
       <r>   -1.0376    1.0000 </r>
       <r>   -1.0371    1.0000 </r>
       <r>   -1.0283    1.0000 </r>
       <r>   -0.9477    1.0000 </r>
       <r>   -0.9457    1.0000 </r>
       <r>   -0.9344    1.0000 </r>
       <r>   -0.2410    1.0000 </r>
       <r>   -0.1692    1.0000 </r>
       <r>   -0.1671    1.0000 </r>
       <r>   -0.1621    1.0000 </r>
       <r>   -0.1605    1.0000 </r>
       <r>   -0.1589    1.0000 </r>
       <r>   -0.1515    1.0000 </r>
       <r>    0.7127    1.0000 </r>
       <r>    0.7143    1.0000 </r>
       <r>    0.7228    1.0000 </r>
       <r>    1.0438    1.0000 </r>
       <r>    1.0450    1.0000 </r>
       <r>    1.0524    1.0000 </r>
       <r>    1.6515    1.0000 </r>
       <r>    1.6541    1.0000 </r>
       <r>    1.6564    1.0000 </r>
       <r>    1.6575    1.0000 </r>
       <r>    1.6602    1.0000 </r>
       <r>    1.6610    1.0000 </r>
       <r>    1.7125    1.0000 </r>
       <r>    1.7139    1.0000 </r>
       <r>    1.7191    1.0000 </r>
       <r>    2.2676    1.0000 </r>
       <r>    2.2688    1.0000 </r>
       <r>    2.2723    1.0000 </r>
       <r>    2.3628    1.0000 </r>
       <r>    2.3646    1.0000 </r>
       <r>    2.3698    1.0000 </r>
       <r>    2.3718    1.0000 </r>
       <r>    2.3732    1.0000 </r>
       <r>    2.3745    1.0000 </r>
       <r>    2.4201    1.0000 </r>
       <r>    2.4216    1.0000 </r>
       <r>    2.4277    1.0000 </r>
       <r>    2.7304    1.0000 </r>
       <r>    2.7317    1.0000 </r>
       <r>    2.7346    1.0000 </r>
       <r>    2.7353    1.0000 </r>
       <r>    2.7365    1.0000 </r>
       <r>    2.7424    1.0000 </r>
       <r>    2.9953    1.0000 </r>
       <r>    2.9991    1.0000 </r>
       <r>    2.9998    1.0000 </r>
       <r>    3.0096    1.0000 </r>
       <r>    3.0100    1.0000 </r>
       <r>    3.0173    1.0000 </r>
       <r>    3.3614    1.0000 </r>
       <r>    3.3622    1.0000 </r>
       <r>    3.3677    1.0000 </r>
       <r>    3.3847    1.0000 </r>
       <r>    3.3877    1.0000 </r>
       <r>    3.3898    1.0000 </r>
       <r>    3.4615    1.0000 </r>
       <r>    3.4664    1.0000 </r>
       <r>    3.4686    1.0000 </r>
       <r>    3.7395    1.0000 </r>
       <r>    3.7405    1.0000 </r>
       <r>    3.7416    1.0000 </r>
       <r>    3.7441    1.0000 </r>
       <r>    3.7472    1.0000 </r>
       <r>    3.7501    1.0000 </r>
       <r>    3.7750    1.0000 </r>
       <r>    3.7803    1.0000 </r>
       <r>    3.7834    1.0000 </r>
       <r>    4.0443    1.0000 </r>
       <r>    4.0921    1.0000 </r>
       <r>    4.0972    1.0000 </r>
       <r>    4.0981    1.0000 </r>
       <r>    4.3345    1.0000 </r>
       <r>    4.3406    1.0000 </r>
       <r>    4.3419    1.0000 </r>
       <r>    4.4064    1.0000 </r>
       <r>    4.4077    1.0000 </r>
       <r>    4.4175    1.0000 </r>
       <r>    4.5569    1.0000 </r>
       <r>    4.5665    1.0000 </r>
       <r>    4.8615    1.0000 </r>
       <r>    4.8694    1.0000 </r>
       <r>    4.8716    1.0000 </r>
       <r>    5.3421    1.0000 </r>
       <r>    5.3527    1.0000 </r>
       <r>    6.5590    0.0000 </r>
       <r>    6.5632    0.0000 </r>
       <r>    6.5632    0.0000 </r>
       <r>    6.9982    0.0000 </r>
       <r>    7.0047    0.0000 </r>
       <r>    7.0082    0.0000 </r>
       <r>    7.2323    0.0000 </r>
       <r>    7.4844    0.0000 </r>
       <r>    7.4897    0.0000 </r>
       <r>    7.4935    0.0000 </r>
       <r>    7.6187    0.0000 </r>
       <r>    7.6195    0.0000 </r>
       <r>    7.6246    0.0000 </r>
       <r>    7.7745    0.0000 </r>
       <r>    7.7808    0.0000 </r>
       <r>    7.7819    0.0000 </r>
       <r>    7.7977    0.0000 </r>
       <r>    7.8017    0.0000 </r>
       <r>    7.8027    0.0000 </r>
       <r>    8.0268    0.0000 </r>
       <r>    8.0296    0.0000 </r>
       <r>    8.0309    0.0000 </r>
       <r>    8.0321    0.0000 </r>
       <r>    8.0341    0.0000 </r>
       <r>    8.0400    0.0000 </r>
       <r>    8.0791    0.0000 </r>
       <r>    8.2908    0.0000 </r>
       <r>    8.2960    0.0000 </r>
       <r>    8.2975    0.0000 </r>
       <r>    8.4940    0.0000 </r>
       <r>    8.5010    0.0000 </r>
       <r>    8.5029    0.0000 </r>
       <r>    8.5052    0.0000 </r>
       <r>    8.5081    0.0000 </r>
       <r>    8.5155    0.0000 </r>
       <r>    8.5414    0.0000 </r>
      </set>
     </set>
    </set>
   </array>
  </eigenvalues>
  <separator name="orbital magnetization" >
   <v name="MAGDIPOLOUT">      0.00000000      0.00000000      0.00000000</v>
  </separator>
  <dos>
   <i name="efermi">      5.59812212 </i>
   <total>
    <array>
     <dimension dim="1">gridpoints</dimension>
     <dimension dim="2">spin</dimension>
     <field>energy</field>
     <field>total</field>
     <field>integrated</field>
     <set>
      <set comment="spin 1">
       <r>    -6.7202     0.0000     0.0000 </r>
       <r>    -6.6669     0.0000     0.0000 </r>
       <r>    -6.6136     0.0000     0.0000 </r>
       <r>    -6.5603     0.0000     0.0000 </r>
       <r>    -6.5069     0.0000     0.0000 </r>
       <r>    -6.4536     0.0000     0.0000 </r>
       <r>    -6.4003     0.0000     0.0000 </r>
       <r>    -6.3470     0.0000     0.0000 </r>
       <r>    -6.2937     0.0000     0.0000 </r>
       <r>    -6.2404     0.0000     0.0000 </r>
       <r>    -6.1871     0.0000     0.0000 </r>
       <r>    -6.1338     0.0013     0.0001 </r>
       <r>    -6.0805     0.2526     0.0135 </r>
       <r>    -6.0271     6.0550     0.3363 </r>
       <r>    -5.9738    20.2378     1.4153 </r>
       <r>    -5.9205    10.2193     1.9601 </r>
       <r>    -5.8672     0.7423     1.9996 </r>
       <r>    -5.8139     0.0069     2.0000 </r>
       <r>    -5.7606     0.0000     2.0000 </r>
       <r>    -5.7073     0.0000     2.0000 </r>
       <r>    -5.6540     0.0000     2.0000 </r>
       <r>    -5.6007     0.0071     2.0004 </r>
       <r>    -5.5473     1.1091     2.0595 </r>
       <r>    -5.4940    21.8934     3.2267 </r>
       <r>    -5.4407    61.5162     6.5062 </r>
       <r>    -5.3874    26.3793     7.9125 </r>
       <r>    -5.3341     1.6279     7.9993 </r>
       <r>    -5.2808     0.0129     8.0000 </r>
       <r>    -5.2275     0.0000     8.0000 </r>
       <r>    -5.1742     0.0000     8.0000 </r>
       <r>    -5.1208     0.0007     8.0000 </r>
       <r>    -5.0675     0.2243     8.0120 </r>
       <r>    -5.0142     9.3001     8.5078 </r>
       <r>    -4.9609    52.5301    11.3083 </r>
       <r>    -4.9076    44.7226    13.6925 </r>
       <r>    -4.8543     5.6718    13.9949 </r>
       <r>    -4.8010     0.0960    14.0000 </r>
       <r>    -4.7477     0.0002    14.0000 </r>
       <r>    -4.6944     0.0001    14.0000 </r>
       <r>    -4.6410     0.0392    14.0021 </r>
       <r>    -4.5877     2.1468    14.1165 </r>
       <r>    -4.5344    15.8660    14.9624 </r>
       <r>    -4.4811    26.2400    16.3613 </r>
       <r>    -4.4278    55.3001    19.3094 </r>
       <r>    -4.3745    44.7191    21.6935 </r>
       <r>    -4.3212     5.6541    21.9949 </r>
       <r>    -4.2679     0.0956    22.0000 </r>
       <r>    -4.2145     0.0002    22.0000 </r>
       <r>    -4.1612     0.0055    22.0003 </r>
       <r>    -4.1079     1.1554    22.0619 </r>
       <r>    -4.0546    30.8687    23.7075 </r>
       <r>    -4.0013   117.5631    29.9750 </r>
       <r>    -3.9480    69.3553    33.6725 </r>
       <r>    -3.8947     8.7183    34.1373 </r>
       <r>    -3.8414    32.8912    35.8907 </r>
       <r>    -3.7881    59.8513    39.0815 </r>
       <r>    -3.7347    16.5831    39.9656 </r>
       <r>    -3.6814     0.6424    39.9998 </r>
       <r>    -3.6281     0.0031    40.0000 </r>
       <r>    -3.5748     0.0000    40.0000 </r>
       <r>    -3.5215     0.0000    40.0000 </r>
       <r>    -3.4682     0.0047    40.0003 </r>
       <r>    -3.4149     0.8349    40.0448 </r>
       <r>    -3.3616    18.8714    41.0508 </r>
       <r>    -3.3083    60.6878    44.2862 </r>
       <r>    -3.2549    29.9645    45.8836 </r>
       <r>    -3.2016     2.1621    45.9989 </r>
       <r>    -3.1483     0.0203    46.0000 </r>
       <r>    -3.0950     0.0073    46.0004 </r>
       <r>    -3.0417     1.1195    46.0601 </r>
       <r>    -2.9884    21.9817    47.2320 </r>
       <r>    -2.9351    61.5175    50.5115 </r>
       <r>    -2.8818    27.5007    51.9777 </r>
       <r>    -2.8284    33.2179    53.7486 </r>
       <r>    -2.7751   118.0457    60.0418 </r>
       <r>    -2.7218    68.2876    63.6823 </r>
       <r>    -2.6685     5.8917    63.9964 </r>
       <r>    -2.6152     0.0678    64.0000 </r>
       <r>    -2.5619     0.0001    64.0000 </r>
       <r>    -2.5086     0.0000    64.0000 </r>
       <r>    -2.4553     0.0000    64.0000 </r>
       <r>    -2.4020     0.0000    64.0000 </r>
       <r>    -2.3486     0.0000    64.0000 </r>
       <r>    -2.2953     0.0000    64.0000 </r>
       <r>    -2.2420     0.0000    64.0000 </r>
       <r>    -2.1887     0.0000    64.0000 </r>
       <r>    -2.1354     0.0000    64.0000 </r>
       <r>    -2.0821     0.0000    64.0000 </r>
       <r>    -2.0288     0.0000    64.0000 </r>
       <r>    -1.9755     0.0000    64.0000 </r>
       <r>    -1.9221     0.0000    64.0000 </r>
       <r>    -1.8688     0.0000    64.0000 </r>
       <r>    -1.8155     0.0000    64.0000 </r>
       <r>    -1.7622     0.0000    64.0000 </r>
       <r>    -1.7089     0.0000    64.0000 </r>
       <r>    -1.6556     0.0000    64.0000 </r>
       <r>    -1.6023     0.0000    64.0000 </r>
       <r>    -1.5490     0.0000    64.0000 </r>
       <r>    -1.4957     0.0000    64.0000 </r>
       <r>    -1.4423     0.0000    64.0000 </r>
       <r>    -1.3890     0.0101    64.0005 </r>
       <r>    -1.3357     1.7076    64.0916 </r>
       <r>    -1.2824    37.5797    66.0950 </r>
       <r>    -1.2291   122.0948    72.6041 </r>
       <r>    -1.1758    86.4233    77.2114 </r>
       <r>    -1.1225    66.7042    80.7676 </r>
       <r>    -1.0692    39.1825    82.8564 </r>
       <r>    -1.0159    63.6575    86.2501 </r>
       <r>    -0.9625    67.1696    89.8310 </r>
       <r>    -0.9092    61.4504    93.1071 </r>
       <r>    -0.8559    16.0994    93.9654 </r>
       <r>    -0.8026     0.6465    93.9998 </r>
       <r>    -0.7493     0.0034    94.0000 </r>
       <r>    -0.6960     0.0000    94.0000 </r>
       <r>    -0.6427     0.0000    94.0000 </r>
       <r>    -0.5894     0.0000    94.0000 </r>
       <r>    -0.5360     0.0000    94.0000 </r>
       <r>    -0.4827     0.0000    94.0000 </r>
       <r>    -0.4294     0.0000    94.0000 </r>
       <r>    -0.3761     0.0040    94.0002 </r>
       <r>    -0.3228     0.5153    94.0277 </r>
       <r>    -0.2695     8.7934    94.4965 </r>
       <r>    -0.2162    33.4921    96.2820 </r>
       <r>    -0.1629    99.9575   101.6109 </r>
       <r>    -0.1096   102.0147   107.0495 </r>
       <r>    -0.0562    17.4077   107.9775 </r>
       <r>    -0.0029     0.4209   107.9999 </r>
       <r>     0.0504     0.0013   108.0000 </r>
       <r>     0.1037     0.0000   108.0000 </r>
       <r>     0.1570     0.0000   108.0000 </r>
       <r>     0.2103     0.0000   108.0000 </r>
       <r>     0.2636     0.0000   108.0000 </r>
       <r>     0.3169     0.0000   108.0000 </r>
       <r>     0.3703     0.0000   108.0000 </r>
       <r>     0.4236     0.0000   108.0000 </r>
       <r>     0.4769     0.0000   108.0000 </r>
       <r>     0.5302     0.0000   108.0000 </r>
       <r>     0.5835     0.0139   108.0007 </r>
       <r>     0.6368     1.6682   108.0897 </r>
       <r>     0.6901    26.3504   109.4945 </r>
       <r>     0.7434    61.2105   112.7577 </r>
       <r>     0.7967    22.1299   113.9375 </r>
       <r>     0.8501     1.1649   113.9996 </r>
       <r>     0.9034     0.0109   114.0002 </r>
       <r>     0.9567     0.6146   114.0329 </r>
       <r>     1.0100    16.0733   114.8898 </r>
       <r>     1.0633    59.3659   118.0547 </r>
       <r>     1.1166    33.6471   119.8485 </r>
       <r>     1.1699     2.8110   119.9984 </r>
       <r>     1.2232     0.0309   120.0000 </r>
       <r>     1.2765     0.0000   120.0000 </r>
       <r>     1.3299     0.0000   120.0000 </r>
       <r>     1.3832     0.0000   120.0000 </r>
       <r>     1.4365     0.0000   120.0000 </r>
       <r>     1.4898     0.0003   120.0000 </r>
       <r>     1.5431     0.1507   120.0080 </r>
       <r>     1.5964     9.8162   120.5314 </r>
       <r>     1.6497    87.9230   125.2187 </r>
       <r>     1.7030   145.4605   132.9734 </r>
       <r>     1.7564    79.2792   137.1999 </r>
       <r>     1.8097    14.5367   137.9749 </r>
       <r>     1.8630     0.4689   137.9999 </r>
       <r>     1.9163     0.0019   138.0000 </r>
       <r>     1.9696     0.0000   138.0000 </r>
       <r>     2.0229     0.0000   138.0000 </r>
       <r>     2.0762     0.0000   138.0000 </r>
       <r>     2.1295     0.0055   138.0003 </r>
       <r>     2.1828     0.9327   138.0500 </r>
       <r>     2.2362    20.0845   139.1208 </r>
       <r>     2.2895    63.6661   142.5149 </r>
       <r>     2.3428    75.6111   146.5458 </r>
       <r>     2.3961   146.9825   154.3817 </r>
       <r>     2.4494   112.0366   160.3546 </r>
       <r>     2.5027    29.2025   161.9114 </r>
       <r>     2.5560     1.6487   161.9993 </r>
       <r>     2.6093     0.0595   162.0025 </r>
       <r>     2.6627     4.6875   162.2524 </r>
       <r>     2.7160    62.0425   165.5600 </r>
       <r>     2.7693   120.6571   171.9924 </r>
       <r>     2.8226    36.1111   173.9175 </r>
       <r>     2.8759     1.5727   174.0014 </r>
       <r>     2.9292     3.6741   174.1972 </r>
       <r>     2.9825    53.7246   177.0614 </r>
       <r>     3.0358   120.8941   183.5064 </r>
       <r>     3.0891    44.2728   185.8667 </r>
       <r>     3.1425     2.4813   185.9990 </r>
       <r>     3.1958     0.0191   186.0000 </r>
       <r>     3.2491     0.0911   186.0049 </r>
       <r>     3.3024     6.3579   186.3438 </r>
       <r>     3.3557    65.6939   189.8461 </r>
       <r>     3.4090   120.9342   196.2933 </r>
       <r>     3.4623    81.0115   200.6121 </r>
       <r>     3.5156    54.1379   203.4983 </r>
       <r>     3.5689     9.1905   203.9883 </r>
       <r>     3.6223     0.3152   204.0051 </r>
       <r>     3.6756     7.4438   204.4019 </r>
       <r>     3.7289    82.5744   208.8041 </r>
       <r>     3.7822   164.8338   217.5916 </r>
       <r>     3.8355    74.8371   221.5813 </r>
       <r>     3.8888     7.7180   221.9928 </r>
       <r>     3.9421     0.2425   222.0057 </r>
       <r>     3.9954     3.9691   222.2173 </r>
       <r>     4.0488    27.4575   223.6811 </r>
       <r>     4.1021    65.8195   227.1901 </r>
       <r>     4.1554    46.7110   229.6803 </r>
       <r>     4.2087     5.9052   229.9951 </r>
       <r>     4.2620     1.5769   230.0792 </r>
       <r>     4.3153    25.6632   231.4473 </r>
       <r>     4.3686    77.6606   235.5875 </r>
       <r>     4.4219    82.1116   239.9650 </r>
       <r>     4.4752    35.6801   241.8672 </r>
       <r>     4.5286    15.0827   242.6713 </r>
       <r>     4.5819    40.1435   244.8114 </r>
       <r>     4.6352    20.6924   245.9145 </r>
       <r>     4.6885     1.5867   245.9991 </r>
       <r>     4.7418     0.0343   246.0010 </r>
       <r>     4.7951     1.9879   246.1069 </r>
       <r>     4.8484    28.6053   247.6319 </r>
       <r>     4.9017    60.8334   250.8751 </r>
       <r>     4.9551    20.1298   251.9482 </r>
       <r>     5.0084     0.9651   251.9997 </r>
       <r>     5.0617     0.0060   252.0000 </r>
       <r>     5.1150     0.0000   252.0000 </r>
       <r>     5.1683     0.0000   252.0000 </r>
       <r>     5.2216     0.0130   252.0007 </r>
       <r>     5.2749     1.3681   252.0736 </r>
       <r>     5.3282    19.2032   253.0974 </r>
       <r>     5.3815    40.3943   255.2509 </r>
       <r>     5.4349    13.3955   255.9650 </r>
       <r>     5.4882     0.6523   255.9998 </r>
       <r>     5.5415     0.0042   256.0000 </r>
       <r>     5.5948     0.0000   256.0000 </r>
       <r>     5.6481     0.0000   256.0000 </r>
       <r>     5.7014     0.0000   256.0000 </r>
       <r>     5.7547     0.0000   256.0000 </r>
       <r>     5.8080     0.0000   256.0000 </r>
       <r>     5.8613     0.0000   256.0000 </r>
       <r>     5.9147     0.0000   256.0000 </r>
       <r>     5.9680     0.0000   256.0000 </r>
       <r>     6.0213     0.0000   256.0000 </r>
       <r>     6.0746     0.0000   256.0000 </r>
       <r>     6.1279     0.0000   256.0000 </r>
       <r>     6.1812     0.0000   256.0000 </r>
       <r>     6.2345     0.0000   256.0000 </r>
       <r>     6.2878     0.0000   256.0000 </r>
       <r>     6.3412     0.0000   256.0000 </r>
       <r>     6.3945     0.0001   256.0000 </r>
       <r>     6.4478     0.0622   256.0033 </r>
       <r>     6.5011     4.3702   256.2363 </r>
       <r>     6.5544    40.5601   258.3986 </r>
       <r>     6.6077    55.6629   261.3661 </r>
       <r>     6.6610    11.5590   261.9823 </r>
       <r>     6.7143     0.3302   261.9999 </r>
       <r>     6.7676     0.0012   262.0000 </r>
       <r>     6.8210     0.0000   262.0000 </r>
       <r>     6.8743     0.0142   262.0008 </r>
       <r>     6.9276     1.7134   262.0921 </r>
       <r>     6.9809    26.8631   263.5242 </r>
       <r>     7.0342    61.3068   266.7926 </r>
       <r>     7.0875    21.5532   267.9416 </r>
       <r>     7.1408     1.2503   268.0083 </r>
       <r>     7.1941     4.7820   268.2632 </r>
       <r>     7.2475    19.4825   269.3019 </r>
       <r>     7.3008    12.0046   269.9418 </r>
       <r>     7.3541     1.0852   269.9997 </r>
       <r>     7.4074     1.0817   270.0574 </r>
       <r>     7.4607    21.3456   271.1953 </r>
       <r>     7.5140    61.4235   274.4699 </r>
       <r>     7.5673    34.8606   276.3284 </r>
       <r>     7.6206    51.4372   279.0706 </r>
       <r>     7.6739    48.0719   281.6334 </r>
       <r>     7.7273    16.6415   282.5206 </r>
       <r>     7.7806    79.0636   286.7356 </r>
       <r>     7.8339   109.0127   292.5472 </r>
       <r>     7.8872    26.2560   293.9470 </r>
       <r>     7.9405     2.2943   294.0693 </r>
       <r>     7.9938    33.0736   295.8325 </r>
       <r>     8.0471   124.7828   302.4849 </r>
       <r>     8.1004    86.7778   307.1111 </r>
       <r>     8.1537    15.8487   307.9560 </r>
       <r>     8.2071     1.5572   308.0391 </r>
       <r>     8.2604    17.7851   308.9872 </r>
       <r>     8.3137    60.3956   312.2070 </r>
       <r>     8.3670    31.2731   313.8742 </r>
       <r>     8.4203     4.5522   314.1169 </r>
       <r>     8.4736    42.7409   316.3955 </r>
       <r>     8.5269   131.7571   323.4197 </r>
       <r>     8.5802    76.3060   327.4877 </r>
       <r>     8.6336     9.3741   327.9874 </r>
       <r>     8.6869     0.2352   328.0000 </r>
       <r>     8.7402     0.0009   328.0000 </r>
       <r>     8.7935     0.0000   328.0000 </r>
       <r>     8.8468     0.0000   328.0000 </r>
       <r>     8.9001     0.0000   328.0000 </r>
       <r>     8.9534     0.0000   328.0000 </r>
       <r>     9.0067     0.0000   328.0000 </r>
       <r>     9.0600     0.0000   328.0000 </r>
       <r>     9.1134     0.0000   328.0000 </r>
       <r>     9.1667     0.0000   328.0000 </r>
       <r>     9.2200     0.0000   328.0000 </r>
       <r>     9.2733     0.0000   328.0000 </r>
      </set>
     </set>
    </array>
   </total>
  </dos>
 </calculation>
 <structure name="finalpos" >
  <crystal>
   <varray name="basis" >
    <v>      10.93252578       0.00000000       0.00000000 </v>
    <v>       0.00000000      10.93252578       0.00000000 </v>
    <v>       0.00000000       0.00000000      10.93252578 </v>
   </varray>
   <i name="volume">   1306.65679237 </i>
   <varray name="rec_basis" >
    <v>       0.09147017       0.00000000       0.00000000 </v>
    <v>       0.00000000       0.09147017       0.00000000 </v>
    <v>       0.00000000       0.00000000       0.09147017 </v>
   </varray>
  </crystal>
  <varray name="positions" >
   <v>       0.44024411       0.43750000       0.43750000 </v>
   <v>       0.93750000       0.43750000       0.43750000 </v>
   <v>       0.43750000       0.93750000       0.43750000 </v>
   <v>       0.93750000       0.93750000       0.43750000 </v>
   <v>       0.43750000       0.43750000       0.93750000 </v>
   <v>       0.93750000       0.43750000       0.93750000 </v>
   <v>       0.43750000       0.93750000       0.93750000 </v>
   <v>       0.93750000       0.93750000       0.93750000 </v>
   <v>       0.43750000       0.18750000       0.18750000 </v>
   <v>       0.93750000       0.18750000       0.18750000 </v>
   <v>       0.43750000       0.68750000       0.18750000 </v>
   <v>       0.93750000       0.68750000       0.18750000 </v>
   <v>       0.43750000       0.18750000       0.68750000 </v>
   <v>       0.93750000       0.18750000       0.68750000 </v>
   <v>       0.43750000       0.68750000       0.68750000 </v>
   <v>       0.93750000       0.68750000       0.68750000 </v>
   <v>       0.18750000       0.43750000       0.18750000 </v>
   <v>       0.69024411       0.43750000       0.18750000 </v>
   <v>       0.18750000       0.93750000       0.18750000 </v>
   <v>       0.68750000       0.93750000       0.18750000 </v>
   <v>       0.18750000       0.43750000       0.68750000 </v>
   <v>       0.68750000       0.43750000       0.68750000 </v>
   <v>       0.18750000       0.93750000       0.68750000 </v>
   <v>       0.68750000       0.93750000       0.68750000 </v>
   <v>       0.18750000       0.18750000       0.43750000 </v>
   <v>       0.68750000       0.18750000       0.43750000 </v>
   <v>       0.18750000       0.68750000       0.43750000 </v>
   <v>       0.68750000       0.68750000       0.43750000 </v>
   <v>       0.18750000       0.18750000       0.93750000 </v>
   <v>       0.68750000       0.18750000       0.93750000 </v>
   <v>       0.18750000       0.68750000       0.93750000 </v>
   <v>       0.68750000       0.68750000       0.93750000 </v>
   <v>       0.06250000       0.06250000       0.06250000 </v>
   <v>       0.56250000       0.06250000       0.06250000 </v>
   <v>       0.06250000       0.56250000       0.06250000 </v>
   <v>       0.56250000       0.56250000       0.06250000 </v>
   <v>       0.06250000       0.06250000       0.56250000 </v>
   <v>       0.56250000       0.06250000       0.56250000 </v>
   <v>       0.06250000       0.56250000       0.56250000 </v>
   <v>       0.56250000       0.56250000       0.56250000 </v>
   <v>       0.06250000       0.31250000       0.31250000 </v>
   <v>       0.56250000       0.31250000       0.31250000 </v>
   <v>       0.06250000       0.81250000       0.31250000 </v>
   <v>       0.56250000       0.81250000       0.31250000 </v>
   <v>       0.06250000       0.31250000       0.81250000 </v>
   <v>       0.56250000       0.31250000       0.81250000 </v>
   <v>       0.06250000       0.81250000       0.81250000 </v>
   <v>       0.56250000       0.81250000       0.81250000 </v>
   <v>       0.31250000       0.06250000       0.31250000 </v>
   <v>       0.81250000       0.06250000       0.31250000 </v>
   <v>       0.31250000       0.56250000       0.31250000 </v>
   <v>       0.81250000       0.56250000       0.31250000 </v>
   <v>       0.31250000       0.06250000       0.81250000 </v>
   <v>       0.81250000       0.06250000       0.81250000 </v>
   <v>       0.31250000       0.56250000       0.81250000 </v>
   <v>       0.81250000       0.56250000       0.81250000 </v>
   <v>       0.31250000       0.31250000       0.06250000 </v>
   <v>       0.81250000       0.31250000       0.06250000 </v>
   <v>       0.31250000       0.81250000       0.06250000 </v>
   <v>       0.81250000       0.81250000       0.06250000 </v>
   <v>       0.31250000       0.31250000       0.56250000 </v>
   <v>       0.81250000       0.31250000       0.56250000 </v>
   <v>       0.31250000       0.81250000       0.56250000 </v>
   <v>       0.81250000       0.81250000       0.56250000 </v>
  </varray>
 </structure>
</modeling>
