
     Program PWSCF v.5.3.0 (svn rev. 11974) starts on  3Feb2016 at 13:47:12 

     This program is part of the open-source Quantum ESPRESSO suite
     for quantum simulation of materials; please cite
         "P. Giannozzi et al., J. Phys.:Condens. Matter 21 395502 (2009);
          URL http://www.quantum-espresso.org", 
     in publications or presentations arising from this work. More details at
     http://www.quantum-espresso.org/quote

     Parallel version (MPI), running on    16 processors
     R & G space division:  proc/nbgrp/npool/nimage =      16
     Reading input from Si.in

     Current dimensions of program PWSCF are:
     Max number of different atomic species (ntypx) = 10
     Max number of k-points (npk) =  40000
     Max angular momentum in pseudopotentials (lmaxx) =  3
               file Si.pbe-n-kjpaw_psl.0.1.UPF: wavefunction(s)  3S renormalized

     Subspace diagonalization in iterative solution of the eigenvalue problem:
     one sub-group per k-point group (pool) will be used
     scalapack distributed-memory algorithm (size of sub-group:  2*  2 procs)

 
     Parallelization info
     --------------------
     sticks:   dense  smooth     PW     G-vecs:    dense   smooth      PW
     Min         424     424    109                26332    26332    3467
     Max         425     425    110                26336    26336    3472
     Sum        6785    6785   1757               421349   421349   55515
 


     bravais-lattice index     =            0
     lattice parameter (alat)  =      20.6591  a.u.
     unit-cell volume          =    8817.2783 (a.u.)^3
     number of atoms/cell      =           64
     number of atomic types    =            1
     number of electrons       =       256.00
     number of Kohn-Sham states=          154
     kinetic-energy cutoff     =      50.0000  Ry
     charge density cutoff     =     200.0000  Ry
     convergence threshold     =      1.0E-09
     mixing beta               =       0.7000
     number of iterations used =            8  plain     mixing
     Exchange-correlation      =  SLA  PW   PBX  PBC ( 1  4  3  4 0 0)

     celldm(1)=  20.659106  celldm(2)=   0.000000  celldm(3)=   0.000000
     celldm(4)=   0.000000  celldm(5)=   0.000000  celldm(6)=   0.000000

     crystal axes: (cart. coord. in units of alat)
               a(1) = (   1.000000   0.000000   0.000000 )  
               a(2) = (   0.000000   1.000000   0.000000 )  
               a(3) = (   0.000000   0.000000   1.000000 )  

     reciprocal axes: (cart. coord. in units 2 pi/alat)
               b(1) = (  1.000000  0.000000  0.000000 )  
               b(2) = (  0.000000  1.000000  0.000000 )  
               b(3) = (  0.000000  0.000000  1.000000 )  


     PseudoPot. # 1 for Si read from file:
     /home/togo/espresso/pseudo/Si.pbe-n-kjpaw_psl.0.1.UPF
     MD5 check sum: b9d333a40e496bef61db012f150758bf
     Pseudo is Projector augmented-wave + core cor, Zval =  4.0
     Generated using "atomic" code by A. Dal Corso  v.5.0.2 svn rev. 9415
     Shape of augmentation charge: PSQ
     Using radial grid of 1141 points,  4 beta functions with: 
                l(1) =   0
                l(2) =   0
                l(3) =   1
                l(4) =   1
     Q(r) pseudized with 0 coefficients 


     atomic species   valence    mass     pseudopotential
        Si             4.00    28.08550     Si( 1.00)

     No symmetry found



   Cartesian axes

     site n.     atom                  positions (alat units)
         1           Si  tau(   1) = (   0.4404043   0.4375000   0.4375000  )
         2           Si  tau(   2) = (   0.9375000   0.4375000   0.4375000  )
         3           Si  tau(   3) = (   0.4375000   0.9375000   0.4375000  )
         4           Si  tau(   4) = (   0.9375000   0.9375000   0.4375000  )
         5           Si  tau(   5) = (   0.4375000   0.4375000   0.9375000  )
         6           Si  tau(   6) = (   0.9375000   0.4375000   0.9375000  )
         7           Si  tau(   7) = (   0.4375000   0.9375000   0.9375000  )
         8           Si  tau(   8) = (   0.9375000   0.9375000   0.9375000  )
         9           Si  tau(   9) = (   0.4375000   0.1875000   0.1875000  )
        10           Si  tau(  10) = (   0.9375000   0.1875000   0.1875000  )
        11           Si  tau(  11) = (   0.4375000   0.6875000   0.1875000  )
        12           Si  tau(  12) = (   0.9375000   0.6875000   0.1875000  )
        13           Si  tau(  13) = (   0.4375000   0.1875000   0.6875000  )
        14           Si  tau(  14) = (   0.9375000   0.1875000   0.6875000  )
        15           Si  tau(  15) = (   0.4375000   0.6875000   0.6875000  )
        16           Si  tau(  16) = (   0.9375000   0.6875000   0.6875000  )
        17           Si  tau(  17) = (   0.1875000   0.4375000   0.1875000  )
        18           Si  tau(  18) = (   0.6875000   0.4375000   0.1875000  )
        19           Si  tau(  19) = (   0.1875000   0.9375000   0.1875000  )
        20           Si  tau(  20) = (   0.6875000   0.9375000   0.1875000  )
        21           Si  tau(  21) = (   0.1875000   0.4375000   0.6875000  )
        22           Si  tau(  22) = (   0.6875000   0.4375000   0.6875000  )
        23           Si  tau(  23) = (   0.1875000   0.9375000   0.6875000  )
        24           Si  tau(  24) = (   0.6875000   0.9375000   0.6875000  )
        25           Si  tau(  25) = (   0.1875000   0.1875000   0.4375000  )
        26           Si  tau(  26) = (   0.6875000   0.1875000   0.4375000  )
        27           Si  tau(  27) = (   0.1875000   0.6875000   0.4375000  )
        28           Si  tau(  28) = (   0.6875000   0.6875000   0.4375000  )
        29           Si  tau(  29) = (   0.1875000   0.1875000   0.9375000  )
        30           Si  tau(  30) = (   0.6875000   0.1875000   0.9375000  )
        31           Si  tau(  31) = (   0.1875000   0.6875000   0.9375000  )
        32           Si  tau(  32) = (   0.6875000   0.6875000   0.9375000  )
        33           Si  tau(  33) = (   0.0625000   0.0625000   0.0625000  )
        34           Si  tau(  34) = (   0.5625000   0.0625000   0.0625000  )
        35           Si  tau(  35) = (   0.0625000   0.5625000   0.0625000  )
        36           Si  tau(  36) = (   0.5625000   0.5625000   0.0625000  )
        37           Si  tau(  37) = (   0.0625000   0.0625000   0.5625000  )
        38           Si  tau(  38) = (   0.5625000   0.0625000   0.5625000  )
        39           Si  tau(  39) = (   0.0625000   0.5625000   0.5625000  )
        40           Si  tau(  40) = (   0.5625000   0.5625000   0.5625000  )
        41           Si  tau(  41) = (   0.0625000   0.3125000   0.3125000  )
        42           Si  tau(  42) = (   0.5625000   0.3125000   0.3125000  )
        43           Si  tau(  43) = (   0.0625000   0.8125000   0.3125000  )
        44           Si  tau(  44) = (   0.5625000   0.8125000   0.3125000  )
        45           Si  tau(  45) = (   0.0625000   0.3125000   0.8125000  )
        46           Si  tau(  46) = (   0.5625000   0.3125000   0.8125000  )
        47           Si  tau(  47) = (   0.0625000   0.8125000   0.8125000  )
        48           Si  tau(  48) = (   0.5625000   0.8125000   0.8125000  )
        49           Si  tau(  49) = (   0.3125000   0.0625000   0.3154043  )
        50           Si  tau(  50) = (   0.8125000   0.0625000   0.3125000  )
        51           Si  tau(  51) = (   0.3125000   0.5625000   0.3125000  )
        52           Si  tau(  52) = (   0.8125000   0.5625000   0.3125000  )
        53           Si  tau(  53) = (   0.3125000   0.0625000   0.8125000  )
        54           Si  tau(  54) = (   0.8125000   0.0625000   0.8125000  )
        55           Si  tau(  55) = (   0.3125000   0.5625000   0.8125000  )
        56           Si  tau(  56) = (   0.8125000   0.5625000   0.8125000  )
        57           Si  tau(  57) = (   0.3125000   0.3125000   0.0625000  )
        58           Si  tau(  58) = (   0.8125000   0.3125000   0.0625000  )
        59           Si  tau(  59) = (   0.3125000   0.8125000   0.0625000  )
        60           Si  tau(  60) = (   0.8125000   0.8125000   0.0625000  )
        61           Si  tau(  61) = (   0.3125000   0.3125000   0.5625000  )
        62           Si  tau(  62) = (   0.8125000   0.3125000   0.5625000  )
        63           Si  tau(  63) = (   0.3125000   0.8125000   0.5625000  )
        64           Si  tau(  64) = (   0.8125000   0.8125000   0.5625000  )

     number of k points=     4  gaussian smearing, width (Ry)=  0.0100
                       cart. coord. in units 2pi/alat
        k(    1) = (   0.2500000   0.2500000   0.2500000), wk =   0.5000000
        k(    2) = (  -0.2500000  -0.2500000   0.2500000), wk =   0.5000000
        k(    3) = (  -0.2500000   0.2500000  -0.2500000), wk =   0.5000000
        k(    4) = (   0.2500000  -0.2500000  -0.2500000), wk =   0.5000000

     Dense  grid:   421349 G-vectors     FFT dimensions: (  96,  96,  96)

     Largest allocated arrays     est. size (Mb)     dimensions
        Kohn-Sham Wavefunctions         7.73 Mb     (    3289,  154)
        NL pseudopotentials            25.70 Mb     (    3289,  512)
        Each V/rho on FFT grid          0.84 Mb     (   55296)
        Each G-vector array             0.20 Mb     (   26336)
        G-vector shells                 0.01 Mb     (    1719)
     Largest temporary arrays     est. size (Mb)     dimensions
        Auxiliary wavefunctions        30.91 Mb     (    3289,  616)
        Each subspace H/S matrix        1.45 Mb     (     308,  308)
        Each <psi_i|beta_j> matrix      1.20 Mb     (     512,  154)
        Arrays for rho mixing           6.75 Mb     (   55296,    8)

     Check: negative/imaginary core charge=   -0.000001    0.000000

     Initial potential from superposition of free atoms

     starting charge  255.96421, renormalised to  256.00000
     Starting wfc are  256 randomized atomic wfcs
     Checking if some PAW data can be deallocated... 

     total cpu time spent up to now is        9.3 secs

     per-process dynamical memory:   114.7 Mb

     Self-consistent Calculation

     iteration #  1     ecut=    50.00 Ry     beta=0.70
     Davidson diagonalization with overlap
     ethr =  1.00E-02,  avg # of iterations =  3.0

     Threshold (ethr) on eigenvalues was too large:
     Diagonalizing with lowered threshold

     Davidson diagonalization with overlap
     ethr =  7.00E-04,  avg # of iterations =  1.0

     total cpu time spent up to now is       46.4 secs

     total energy              =   -2990.45692927 Ry
     Harris-Foulkes estimate   =   -2990.87683230 Ry
     estimated scf accuracy    <       1.77324273 Ry

     iteration #  2     ecut=    50.00 Ry     beta=0.70
     Davidson diagonalization with overlap
     ethr =  6.93E-04,  avg # of iterations =  1.0

     total cpu time spent up to now is       60.3 secs

     total energy              =   -2990.52359335 Ry
     Harris-Foulkes estimate   =   -2990.52749537 Ry
     estimated scf accuracy    <       0.07634726 Ry

     iteration #  3     ecut=    50.00 Ry     beta=0.70
     Davidson diagonalization with overlap
     ethr =  2.98E-05,  avg # of iterations = 11.0

     total cpu time spent up to now is       92.8 secs

     total energy              =   -2990.53047317 Ry
     Harris-Foulkes estimate   =   -2990.53140869 Ry
     estimated scf accuracy    <       0.00212465 Ry

     iteration #  4     ecut=    50.00 Ry     beta=0.70
     Davidson diagonalization with overlap
     ethr =  8.30E-07,  avg # of iterations =  6.0

     total cpu time spent up to now is      129.2 secs

     total energy              =   -2990.53006655 Ry
     Harris-Foulkes estimate   =   -2990.53306944 Ry
     estimated scf accuracy    <       0.00953680 Ry

     iteration #  5     ecut=    50.00 Ry     beta=0.70
     Davidson diagonalization with overlap
     ethr =  8.30E-07,  avg # of iterations =  5.0

     total cpu time spent up to now is      162.9 secs

     total energy              =   -2990.53147264 Ry
     Harris-Foulkes estimate   =   -2990.53161773 Ry
     estimated scf accuracy    <       0.00042211 Ry

     iteration #  6     ecut=    50.00 Ry     beta=0.70
     Davidson diagonalization with overlap
     ethr =  1.65E-07,  avg # of iterations =  2.0

     total cpu time spent up to now is      180.2 secs

     total energy              =   -2990.53154546 Ry
     Harris-Foulkes estimate   =   -2990.53156215 Ry
     estimated scf accuracy    <       0.00004738 Ry

     iteration #  7     ecut=    50.00 Ry     beta=0.70
     Davidson diagonalization with overlap
     ethr =  1.85E-08,  avg # of iterations =  3.0

     total cpu time spent up to now is      200.7 secs

     total energy              =   -2990.53155434 Ry
     Harris-Foulkes estimate   =   -2990.53155628 Ry
     estimated scf accuracy    <       0.00000442 Ry

     iteration #  8     ecut=    50.00 Ry     beta=0.70
     Davidson diagonalization with overlap
     ethr =  1.73E-09,  avg # of iterations =  3.0

     total cpu time spent up to now is      222.5 secs

     total energy              =   -2990.53155553 Ry
     Harris-Foulkes estimate   =   -2990.53155575 Ry
     estimated scf accuracy    <       0.00000049 Ry

     iteration #  9     ecut=    50.00 Ry     beta=0.70
     Davidson diagonalization with overlap
     ethr =  1.93E-10,  avg # of iterations =  3.0

     total cpu time spent up to now is      242.3 secs

     total energy              =   -2990.53155556 Ry
     Harris-Foulkes estimate   =   -2990.53155566 Ry
     estimated scf accuracy    <       0.00000017 Ry

     iteration # 10     ecut=    50.00 Ry     beta=0.70
     Davidson diagonalization with overlap
     ethr =  6.79E-11,  avg # of iterations =  3.0

     total cpu time spent up to now is      261.0 secs

     total energy              =   -2990.53155554 Ry
     Harris-Foulkes estimate   =   -2990.53155560 Ry
     estimated scf accuracy    <       0.00000007 Ry

     iteration # 11     ecut=    50.00 Ry     beta=0.70
     Davidson diagonalization with overlap
     ethr =  2.81E-11,  avg # of iterations =  2.0

     total cpu time spent up to now is      278.2 secs

     total energy              =   -2990.53155556 Ry
     Harris-Foulkes estimate   =   -2990.53155556 Ry
     estimated scf accuracy    <          2.2E-09 Ry

     iteration # 12     ecut=    50.00 Ry     beta=0.70
     Davidson diagonalization with overlap
     ethr =  8.62E-13,  avg # of iterations =  3.0

     total cpu time spent up to now is      304.3 secs

     total energy              =   -2990.53155556 Ry
     Harris-Foulkes estimate   =   -2990.53155556 Ry
     estimated scf accuracy    <          1.4E-09 Ry

     iteration # 13     ecut=    50.00 Ry     beta=0.70
     Davidson diagonalization with overlap
     ethr =  5.40E-13,  avg # of iterations =  2.0

     total cpu time spent up to now is      322.9 secs

     End of self-consistent calculation

          k = 0.2500 0.2500 0.2500 ( 52563 PWs)   bands (ev):

    -5.6250  -5.0973  -5.0964  -5.0953  -4.5977  -4.5968  -4.5958  -4.1632
    -4.0648  -4.0633  -4.0618  -3.6529  -3.6485  -3.6472  -3.6469  -3.6455
    -3.6414  -3.4590  -3.4549  -3.4505  -2.9611  -2.9585  -2.9561  -2.5930
    -2.5890  -2.5856  -2.4278  -2.4225  -2.4216  -2.4201  -2.4192  -2.4135
    -0.8875  -0.8805  -0.8786  -0.8775  -0.8763  -0.8695  -0.7837  -0.7809
    -0.7767  -0.6675  -0.6622  -0.6569  -0.5811  -0.5762  -0.5709   0.1263
     0.2024   0.2094   0.2106   0.2108   0.2121   0.2192   1.0796   1.0854
     1.0911   1.4141   1.4184   1.4226   2.0241   2.0277   2.0290   2.0293
     2.0307   2.0342   2.0857   2.0882   2.0906   2.6378   2.6401   2.6424
     2.7376   2.7393   2.7430   2.7435   2.7466   2.7487   2.7921   2.7966
     2.8008   3.1029   3.1050   3.1072   3.1079   3.1102   3.1123   3.3694
     3.3718   3.3731   3.3825   3.3869   3.3901   3.7329   3.7347   3.7364
     3.7521   3.7563   3.7609   3.8368   3.8395   3.8423   4.1057   4.1131
     4.1141   4.1144   4.1152   4.1227   4.1506   4.1536   4.1571   4.4129
     4.4686   4.4714   4.4730   4.7114   4.7144   4.7175   4.7741   4.7787
     4.7841   4.9319   4.9406   5.2395   5.2434   5.2478   5.7191   5.7289
     6.9330   6.9361   6.9396   7.3716   7.3768   7.3818   7.5987   7.8570
     7.8618   7.8666   7.9878   7.9918   7.9958   8.1474   8.1513   8.1550
     8.1670   8.1695   8.1712   8.3968   8.3990   8.4024   8.4026   8.4058
     8.4079   8.4478

          k =-0.2500-0.2500 0.2500 ( 52563 PWs)   bands (ev):

    -5.6251  -5.0993  -5.0960  -5.0933  -4.5998  -4.5966  -4.5939  -4.1642
    -4.0671  -4.0634  -4.0607  -3.6524  -3.6504  -3.6492  -3.6473  -3.6439
    -3.6363  -3.4577  -3.4548  -3.4497  -2.9645  -2.9603  -2.9566  -2.5923
    -2.5891  -2.5853  -2.4260  -2.4244  -2.4231  -2.4214  -2.4175  -2.4104
    -0.8850  -0.8834  -0.8804  -0.8795  -0.8735  -0.8710  -0.7848  -0.7809
    -0.7782  -0.6680  -0.6623  -0.6613  -0.5770  -0.5716  -0.5668   0.1300
     0.2014   0.2052   0.2080   0.2089   0.2151   0.2169   1.0830   1.0874
     1.0929   1.4153   1.4184   1.4212   2.0246   2.0272   2.0289   2.0301
     2.0305   2.0328   2.0848   2.0863   2.0903   2.6401   2.6424   2.6437
     2.7363   2.7388   2.7408   2.7438   2.7446   2.7466   2.7909   2.7936
     2.7983   3.1030   3.1056   3.1065   3.1075   3.1103   3.1135   3.3690
     3.3698   3.3725   3.3824   3.3852   3.3876   3.7339   3.7367   3.7387
     3.7561   3.7599   3.7634   3.8352   3.8387   3.8412   4.1125   4.1132
     4.1155   4.1159   4.1201   4.1245   4.1485   4.1528   4.1563   4.4169
     4.4668   4.4679   4.4713   4.7090   4.7131   4.7154   4.7791   4.7836
     4.7886   4.9324   4.9376   5.2359   5.2417   5.2448   5.7188   5.7244
     6.9318   6.9338   6.9380   7.3698   7.3774   7.3807   7.5972   7.8553
     7.8609   7.8645   7.9893   7.9939   7.9962   8.1459   8.1522   8.1540
     8.1666   8.1679   8.1713   8.3974   8.4008   8.4033   8.4055   8.4090
     8.4092   8.4456

          k =-0.2500 0.2500-0.2500 ( 52563 PWs)   bands (ev):

    -5.6250  -5.0990  -5.0964  -5.0937  -4.5993  -4.5968  -4.5941  -4.1632
    -4.0659  -4.0633  -4.0609  -3.6559  -3.6491  -3.6471  -3.6469  -3.6449
    -3.6385  -3.4590  -3.4548  -3.4505  -2.9612  -2.9586  -2.9559  -2.5930
    -2.5892  -2.5856  -2.4284  -2.4230  -2.4212  -2.4204  -2.4186  -2.4129
    -0.8853  -0.8815  -0.8787  -0.8778  -0.8751  -0.8713  -0.7839  -0.7806
    -0.7769  -0.6675  -0.6622  -0.6570  -0.5836  -0.5762  -0.5683   0.1263
     0.2035   0.2066   0.2104   0.2109   0.2150   0.2181   1.0790   1.0854
     1.0917   1.4140   1.4184   1.4225   2.0247   2.0267   2.0288   2.0294
     2.0315   2.0337   2.0859   2.0881   2.0907   2.6383   2.6401   2.6419
     2.7380   2.7401   2.7424   2.7440   2.7461   2.7479   2.7931   2.7968
     2.7999   3.1009   3.1059   3.1075   3.1076   3.1092   3.1141   3.3692
     3.3720   3.3744   3.3822   3.3861   3.3898   3.7311   3.7347   3.7378
     3.7539   3.7570   3.7589   3.8373   3.8396   3.8418   4.1064   4.1120
     4.1142   4.1144   4.1165   4.1217   4.1511   4.1538   4.1563   4.4133
     4.4678   4.4708   4.4743   4.7121   4.7145   4.7169   4.7727   4.7787
     4.7856   4.9319   4.9406   5.2404   5.2436   5.2468   5.7191   5.7289
     6.9324   6.9363   6.9400   7.3740   7.3767   7.3795   7.5987   7.8586
     7.8618   7.8652   7.9877   7.9918   7.9956   8.1488   8.1512   8.1541
     8.1653   8.1692   8.1729   8.3963   8.3973   8.4022   8.4026   8.4072
     8.4084   8.4480

          k = 0.2500-0.2500-0.2500 ( 52563 PWs)   bands (ev):

    -5.6250  -5.0993  -5.0967  -5.0933  -4.5995  -4.5968  -4.5937  -4.1621
    -4.0661  -4.0632  -4.0597  -3.6584  -3.6502  -3.6466  -3.6448  -3.6437
    -3.6417  -3.4595  -3.4549  -3.4520  -2.9605  -2.9568  -2.9528  -2.5936
    -2.5893  -2.5860  -2.4308  -2.4240  -2.4202  -2.4185  -2.4172  -2.4156
    -0.8862  -0.8830  -0.8769  -0.8759  -0.8732  -0.8717  -0.7827  -0.7800
    -0.7760  -0.6631  -0.6619  -0.6562  -0.5853  -0.5806  -0.5754   0.1226
     0.2046   0.2064   0.2125   0.2134   0.2163   0.2204   1.0778   1.0833
     1.0877   1.4156   1.4182   1.4213   2.0252   2.0278   2.0282   2.0296
     2.0312   2.0335   2.0868   2.0900   2.0915   2.6366   2.6377   2.6401
     2.7399   2.7418   2.7427   2.7452   2.7475   2.7495   2.7948   2.7993
     2.8023   3.1015   3.1047   3.1077   3.1086   3.1096   3.1122   3.3711
     3.3733   3.3742   3.3849   3.3872   3.3905   3.7300   3.7318   3.7358
     3.7498   3.7537   3.7567   3.8381   3.8402   3.8438   4.1038   4.1085
     4.1125   4.1130   4.1153   4.1160   4.1523   4.1544   4.1586   4.4088
     4.4711   4.4740   4.4749   4.7134   4.7157   4.7204   4.7699   4.7743
     4.7782   4.9350   4.9399   5.2423   5.2452   5.2515   5.7236   5.7292
     6.9346   6.9387   6.9405   7.3729   7.3762   7.3834   7.6002   7.8594
     7.8629   7.8682   7.9871   7.9896   7.9941   8.1491   8.1504   8.1553
     8.1669   8.1706   8.1726   8.3956   8.3958   8.3994   8.4017   8.4037
     8.4073   8.4502

     the Fermi energy is     6.3274 ev

!    total energy              =   -2990.53155556 Ry
     Harris-Foulkes estimate   =   -2990.53155556 Ry
     estimated scf accuracy    <          3.3E-10 Ry

     total all-electron energy =    -37124.667109 Ry

     The total energy is the sum of the following terms:

     one-electron contribution =     178.60663423 Ry
     hartree contribution      =      35.70139692 Ry
     xc contribution           =    -391.44199846 Ry
     ewald contribution        =    -534.00628167 Ry
     one-center paw contrib.   =   -2279.39130658 Ry
     smearing contrib. (-TS)   =       0.00000000 Ry

     convergence has been achieved in  13 iterations

     Forces acting on atoms (Ry/au):

     atom    1 type  1   force =    -0.01583839   -0.00003913   -0.00006313
     atom    2 type  1   force =     0.00005004   -0.00002767    0.00025654
     atom    3 type  1   force =     0.00276036   -0.00270497    0.00392915
     atom    4 type  1   force =     0.00003124   -0.00005041   -0.00006031
     atom    5 type  1   force =     0.00008153   -0.00002531    0.00002630
     atom    6 type  1   force =     0.00002387   -0.00003072   -0.00002174
     atom    7 type  1   force =    -0.00043697   -0.00003785   -0.00001200
     atom    8 type  1   force =     0.00004958   -0.00002703    0.00002576
     atom    9 type  1   force =    -0.00301142   -0.00236824    0.00392696
     atom   10 type  1   force =    -0.00003730   -0.00004174   -0.00004907
     atom   11 type  1   force =    -0.00057466    0.00007223   -0.00016849
     atom   12 type  1   force =    -0.00002753   -0.00001844    0.00024287
     atom   13 type  1   force =    -0.00056150   -0.00014761    0.00009729
     atom   14 type  1   force =    -0.00002622   -0.00003809    0.00003786
     atom   15 type  1   force =    -0.00055588   -0.00014088   -0.00008544
     atom   16 type  1   force =    -0.00003207   -0.00004096   -0.00003070
     atom   17 type  1   force =     0.00028324   -0.00007281    0.00016874
     atom   18 type  1   force =     0.00026600   -0.00008529    0.00001930
     atom   19 type  1   force =     0.00252422    0.00247233    0.00373509
     atom   20 type  1   force =     0.00007962    0.00004147    0.00001802
     atom   21 type  1   force =     0.00026009    0.00013598   -0.00019874
     atom   22 type  1   force =     0.00026949    0.00014520    0.00021146
     atom   23 type  1   force =     0.00008059    0.00004795    0.00006494
     atom   24 type  1   force =     0.00006956    0.00003825   -0.00004803
     atom   25 type  1   force =    -0.00247378    0.00293383    0.00382027
     atom   26 type  1   force =     0.00019915   -0.00018275   -0.00017403
     atom   27 type  1   force =     0.00018118   -0.00018907    0.00004914
     atom   28 type  1   force =     0.00021068    0.00026039    0.00036995
     atom   29 type  1   force =     0.00000499   -0.00003882   -0.00002201
     atom   30 type  1   force =     0.00001730    0.00010376    0.00001628
     atom   31 type  1   force =     0.00001570    0.00010194    0.00003590
     atom   32 type  1   force =     0.00001195   -0.00004539   -0.00001206
     atom   33 type  1   force =     0.00020655    0.00014109    0.00026253
     atom   34 type  1   force =     0.00002823   -0.00008229    0.00025902
     atom   35 type  1   force =    -0.00005127    0.00003597    0.00006728
     atom   36 type  1   force =     0.00001695    0.00004046    0.00008145
     atom   37 type  1   force =    -0.00020689    0.00013941    0.00026478
     atom   38 type  1   force =     0.00017249   -0.00007514    0.00028811
     atom   39 type  1   force =     0.00006261    0.00004706    0.00008114
     atom   40 type  1   force =     0.00385323    0.00269582    0.00274871
     atom   41 type  1   force =     0.00010171   -0.00015186   -0.00056631
     atom   42 type  1   force =     0.00403747   -0.00259479   -0.00322735
     atom   43 type  1   force =    -0.00008391   -0.00013485   -0.00055056
     atom   44 type  1   force =    -0.00017403    0.00007512   -0.00057849
     atom   45 type  1   force =     0.00003543   -0.00003552   -0.00002557
     atom   46 type  1   force =    -0.00005063   -0.00004030   -0.00003775
     atom   47 type  1   force =    -0.00003159   -0.00004099   -0.00003004
     atom   48 type  1   force =     0.00024717   -0.00001894   -0.00002829
     atom   49 type  1   force =    -0.00005584   -0.00003662   -0.01584092
     atom   50 type  1   force =     0.00002793   -0.00002676    0.00008401
     atom   51 type  1   force =     0.00381238   -0.00248219    0.00253615
     atom   52 type  1   force =    -0.00001293   -0.00003786   -0.00043678
     atom   53 type  1   force =     0.00025288   -0.00002717    0.00005044
     atom   54 type  1   force =    -0.00002163   -0.00003080    0.00002330
     atom   55 type  1   force =    -0.00005847   -0.00005187    0.00003080
     atom   56 type  1   force =     0.00002826   -0.00002904    0.00005093
     atom   57 type  1   force =    -0.00016827   -0.00017585    0.00019406
     atom   58 type  1   force =     0.00001842    0.00010672    0.00001561
     atom   59 type  1   force =     0.00036303    0.00025533    0.00020365
     atom   60 type  1   force =    -0.00001225   -0.00004714    0.00001158
     atom   61 type  1   force =     0.00369719    0.00271363   -0.00224349
     atom   62 type  1   force =    -0.00002198   -0.00003774    0.00000533
     atom   63 type  1   force =     0.00005581   -0.00019524    0.00018659
     atom   64 type  1   force =     0.00003735    0.00010222    0.00001404

     Total force =     0.027185     Total SCF correction =     0.000035

     Writing output data file pwscf.save
 
     init_run     :      9.00s CPU      9.09s WALL (       1 calls)
     electrons    :    301.06s CPU    314.74s WALL (       1 calls)
     forces       :      4.14s CPU      4.31s WALL (       1 calls)

     Called by init_run:
     wfcinit      :      8.48s CPU      8.53s WALL (       1 calls)
     potinit      :      0.22s CPU      0.22s WALL (       1 calls)

     Called by electrons:
     c_bands      :    273.26s CPU    284.43s WALL (      14 calls)
     sum_band     :     24.12s CPU     25.55s WALL (      14 calls)
     v_of_rho     :      0.56s CPU      0.56s WALL (      14 calls)
     newd         :      0.92s CPU      0.93s WALL (      14 calls)
     PAW_pot      :      2.13s CPU      2.13s WALL (      14 calls)
     mix_rho      :      0.19s CPU      0.19s WALL (      14 calls)

     Called by c_bands:
     init_us_2    :      1.28s CPU      1.29s WALL (     120 calls)
     cegterg      :    267.50s CPU    273.33s WALL (      56 calls)

     Called by sum_band:
     sum_band:bec :      0.05s CPU      0.05s WALL (      56 calls)
     addusdens    :      0.89s CPU      1.02s WALL (      14 calls)

     Called by *egterg:
     h_psi        :    125.01s CPU    125.17s WALL (     252 calls)
     s_psi        :     33.79s CPU     33.79s WALL (     252 calls)
     g_psi        :      0.79s CPU      0.79s WALL (     192 calls)
     cdiaghg      :     38.12s CPU     38.19s WALL (     244 calls)

     Called by h_psi:
     add_vuspsi   :     34.12s CPU     34.12s WALL (     252 calls)

     General routines
     calbec       :     50.19s CPU     50.21s WALL (     324 calls)
     fft          :      0.46s CPU      0.46s WALL (     195 calls)
     fftw         :     59.32s CPU     59.61s WALL (   57248 calls)
     davcio       :      0.00s CPU      0.02s WALL (       4 calls)
 
     Parallel routines
     fft_scatter  :     16.92s CPU     16.39s WALL (   57443 calls)
 
     PWSCF        :  5m14.50s CPU     5m54.69s WALL

 
   This run was terminated on:  13:53: 7   3Feb2016            

=------------------------------------------------------------------------------=
   JOB DONE.
=------------------------------------------------------------------------------=
