
     Program PWSCF v.5.3.0 (svn rev. 11974) starts on  3Feb2016 at 13:32:22 

     This program is part of the open-source Quantum ESPRESSO suite
     for quantum simulation of materials; please cite
         "P. Giannozzi et al., J. Phys.:Condens. Matter 21 395502 (2009);
          URL http://www.quantum-espresso.org", 
     in publications or presentations arising from this work. More details at
     http://www.quantum-espresso.org/quote

     Parallel version (MPI), running on    16 processors
     R & G space division:  proc/nbgrp/npool/nimage =      16
     Reading input from Si.in

     Current dimensions of program PWSCF are:
     Max number of different atomic species (ntypx) = 10
     Max number of k-points (npk) =  40000
     Max angular momentum in pseudopotentials (lmaxx) =  3
               file Si.pbe-n-kjpaw_psl.0.1.UPF: wavefunction(s)  3S renormalized

     Subspace diagonalization in iterative solution of the eigenvalue problem:
     one sub-group per k-point group (pool) will be used
     scalapack distributed-memory algorithm (size of sub-group:  2*  2 procs)

 
     Parallelization info
     --------------------
     sticks:   dense  smooth     PW     G-vecs:    dense   smooth      PW
     Min         424     424    109                26332    26332    3467
     Max         425     425    110                26336    26336    3472
     Sum        6785    6785   1757               421349   421349   55515
 


     bravais-lattice index     =            0
     lattice parameter (alat)  =      20.6591  a.u.
     unit-cell volume          =    8817.2783 (a.u.)^3
     number of atoms/cell      =           64
     number of atomic types    =            1
     number of electrons       =       256.00
     number of Kohn-Sham states=          154
     kinetic-energy cutoff     =      50.0000  Ry
     charge density cutoff     =     200.0000  Ry
     convergence threshold     =      1.0E-09
     mixing beta               =       0.7000
     number of iterations used =            8  plain     mixing
     Exchange-correlation      =  SLA  PW   PBX  PBC ( 1  4  3  4 0 0)

     celldm(1)=  20.659106  celldm(2)=   0.000000  celldm(3)=   0.000000
     celldm(4)=   0.000000  celldm(5)=   0.000000  celldm(6)=   0.000000

     crystal axes: (cart. coord. in units of alat)
               a(1) = (   1.000000   0.000000   0.000000 )  
               a(2) = (   0.000000   1.000000   0.000000 )  
               a(3) = (   0.000000   0.000000   1.000000 )  

     reciprocal axes: (cart. coord. in units 2 pi/alat)
               b(1) = (  1.000000  0.000000  0.000000 )  
               b(2) = (  0.000000  1.000000  0.000000 )  
               b(3) = (  0.000000  0.000000  1.000000 )  


     PseudoPot. # 1 for Si read from file:
     /home/togo/espresso/pseudo/Si.pbe-n-kjpaw_psl.0.1.UPF
     MD5 check sum: b9d333a40e496bef61db012f150758bf
     Pseudo is Projector augmented-wave + core cor, Zval =  4.0
     Generated using "atomic" code by A. Dal Corso  v.5.0.2 svn rev. 9415
     Shape of augmentation charge: PSQ
     Using radial grid of 1141 points,  4 beta functions with: 
                l(1) =   0
                l(2) =   0
                l(3) =   1
                l(4) =   1
     Q(r) pseudized with 0 coefficients 


     atomic species   valence    mass     pseudopotential
        Si             4.00    28.08550     Si( 1.00)

      2 Sym. Ops. (no inversion) found



   Cartesian axes

     site n.     atom                  positions (alat units)
         1           Si  tau(   1) = (   0.4404043   0.4375000   0.4375000  )
         2           Si  tau(   2) = (   0.9375000   0.4375000   0.4375000  )
         3           Si  tau(   3) = (   0.4375000   0.9375000   0.4375000  )
         4           Si  tau(   4) = (   0.9375000   0.9375000   0.4375000  )
         5           Si  tau(   5) = (   0.4375000   0.4375000   0.9375000  )
         6           Si  tau(   6) = (   0.9375000   0.4375000   0.9375000  )
         7           Si  tau(   7) = (   0.4375000   0.9375000   0.9375000  )
         8           Si  tau(   8) = (   0.9375000   0.9375000   0.9375000  )
         9           Si  tau(   9) = (   0.4404043   0.1875000   0.1875000  )
        10           Si  tau(  10) = (   0.9375000   0.1875000   0.1875000  )
        11           Si  tau(  11) = (   0.4375000   0.6875000   0.1875000  )
        12           Si  tau(  12) = (   0.9375000   0.6875000   0.1875000  )
        13           Si  tau(  13) = (   0.4375000   0.1875000   0.6875000  )
        14           Si  tau(  14) = (   0.9375000   0.1875000   0.6875000  )
        15           Si  tau(  15) = (   0.4375000   0.6875000   0.6875000  )
        16           Si  tau(  16) = (   0.9375000   0.6875000   0.6875000  )
        17           Si  tau(  17) = (   0.1875000   0.4375000   0.1875000  )
        18           Si  tau(  18) = (   0.6875000   0.4375000   0.1875000  )
        19           Si  tau(  19) = (   0.1875000   0.9375000   0.1875000  )
        20           Si  tau(  20) = (   0.6875000   0.9375000   0.1875000  )
        21           Si  tau(  21) = (   0.1875000   0.4375000   0.6875000  )
        22           Si  tau(  22) = (   0.6875000   0.4375000   0.6875000  )
        23           Si  tau(  23) = (   0.1875000   0.9375000   0.6875000  )
        24           Si  tau(  24) = (   0.6875000   0.9375000   0.6875000  )
        25           Si  tau(  25) = (   0.1875000   0.1875000   0.4375000  )
        26           Si  tau(  26) = (   0.6875000   0.1875000   0.4375000  )
        27           Si  tau(  27) = (   0.1875000   0.6875000   0.4375000  )
        28           Si  tau(  28) = (   0.6875000   0.6875000   0.4375000  )
        29           Si  tau(  29) = (   0.1875000   0.1875000   0.9375000  )
        30           Si  tau(  30) = (   0.6875000   0.1875000   0.9375000  )
        31           Si  tau(  31) = (   0.1875000   0.6875000   0.9375000  )
        32           Si  tau(  32) = (   0.6875000   0.6875000   0.9375000  )
        33           Si  tau(  33) = (   0.0625000   0.0625000   0.0625000  )
        34           Si  tau(  34) = (   0.5625000   0.0625000   0.0625000  )
        35           Si  tau(  35) = (   0.0625000   0.5625000   0.0625000  )
        36           Si  tau(  36) = (   0.5625000   0.5625000   0.0625000  )
        37           Si  tau(  37) = (   0.0625000   0.0625000   0.5625000  )
        38           Si  tau(  38) = (   0.5625000   0.0625000   0.5625000  )
        39           Si  tau(  39) = (   0.0625000   0.5625000   0.5625000  )
        40           Si  tau(  40) = (   0.5625000   0.5625000   0.5625000  )
        41           Si  tau(  41) = (   0.0625000   0.3125000   0.3125000  )
        42           Si  tau(  42) = (   0.5625000   0.3125000   0.3125000  )
        43           Si  tau(  43) = (   0.0625000   0.8125000   0.3125000  )
        44           Si  tau(  44) = (   0.5625000   0.8125000   0.3125000  )
        45           Si  tau(  45) = (   0.0625000   0.3125000   0.8125000  )
        46           Si  tau(  46) = (   0.5625000   0.3125000   0.8125000  )
        47           Si  tau(  47) = (   0.0625000   0.8125000   0.8125000  )
        48           Si  tau(  48) = (   0.5625000   0.8125000   0.8125000  )
        49           Si  tau(  49) = (   0.3125000   0.0625000   0.3125000  )
        50           Si  tau(  50) = (   0.8125000   0.0625000   0.3125000  )
        51           Si  tau(  51) = (   0.3125000   0.5625000   0.3125000  )
        52           Si  tau(  52) = (   0.8125000   0.5625000   0.3125000  )
        53           Si  tau(  53) = (   0.3125000   0.0625000   0.8125000  )
        54           Si  tau(  54) = (   0.8125000   0.0625000   0.8125000  )
        55           Si  tau(  55) = (   0.3125000   0.5625000   0.8125000  )
        56           Si  tau(  56) = (   0.8125000   0.5625000   0.8125000  )
        57           Si  tau(  57) = (   0.3125000   0.3125000   0.0625000  )
        58           Si  tau(  58) = (   0.8125000   0.3125000   0.0625000  )
        59           Si  tau(  59) = (   0.3125000   0.8125000   0.0625000  )
        60           Si  tau(  60) = (   0.8125000   0.8125000   0.0625000  )
        61           Si  tau(  61) = (   0.3125000   0.3125000   0.5625000  )
        62           Si  tau(  62) = (   0.8125000   0.3125000   0.5625000  )
        63           Si  tau(  63) = (   0.3125000   0.8125000   0.5625000  )
        64           Si  tau(  64) = (   0.8125000   0.8125000   0.5625000  )

     number of k points=     3  gaussian smearing, width (Ry)=  0.0100
                       cart. coord. in units 2pi/alat
        k(    1) = (   0.2500000   0.2500000   0.2500000), wk =   0.5000000
        k(    2) = (  -0.2500000   0.2500000  -0.2500000), wk =   1.0000000
        k(    3) = (   0.2500000  -0.2500000  -0.2500000), wk =   0.5000000

     Dense  grid:   421349 G-vectors     FFT dimensions: (  96,  96,  96)

     Largest allocated arrays     est. size (Mb)     dimensions
        Kohn-Sham Wavefunctions         7.72 Mb     (    3285,  154)
        NL pseudopotentials            25.66 Mb     (    3285,  512)
        Each V/rho on FFT grid          0.84 Mb     (   55296)
        Each G-vector array             0.20 Mb     (   26336)
        G-vector shells                 0.01 Mb     (    1719)
     Largest temporary arrays     est. size (Mb)     dimensions
        Auxiliary wavefunctions        30.88 Mb     (    3285,  616)
        Each subspace H/S matrix        1.45 Mb     (     308,  308)
        Each <psi_i|beta_j> matrix      1.20 Mb     (     512,  154)
        Arrays for rho mixing           6.75 Mb     (   55296,    8)

     Check: negative/imaginary core charge=   -0.000001    0.000000

     Initial potential from superposition of free atoms

     starting charge  255.96421, renormalised to  256.00000
     Starting wfc are  256 randomized atomic wfcs
     Checking if some PAW data can be deallocated... 

     total cpu time spent up to now is        7.1 secs

     per-process dynamical memory:   115.9 Mb

     Self-consistent Calculation

     iteration #  1     ecut=    50.00 Ry     beta=0.70
     Davidson diagonalization with overlap
     ethr =  1.00E-02,  avg # of iterations =  3.0

     Threshold (ethr) on eigenvalues was too large:
     Diagonalizing with lowered threshold

     Davidson diagonalization with overlap
     ethr =  7.00E-04,  avg # of iterations =  1.0

     total cpu time spent up to now is       33.8 secs

     total energy              =   -2990.45690012 Ry
     Harris-Foulkes estimate   =   -2990.87647985 Ry
     estimated scf accuracy    <       1.77331789 Ry

     iteration #  2     ecut=    50.00 Ry     beta=0.70
     Davidson diagonalization with overlap
     ethr =  6.93E-04,  avg # of iterations =  1.0

     total cpu time spent up to now is       43.9 secs

     total energy              =   -2990.52358269 Ry
     Harris-Foulkes estimate   =   -2990.52742706 Ry
     estimated scf accuracy    <       0.07629733 Ry

     iteration #  3     ecut=    50.00 Ry     beta=0.70
     Davidson diagonalization with overlap
     ethr =  2.98E-05,  avg # of iterations = 10.0

     total cpu time spent up to now is       66.0 secs

     total energy              =   -2990.53060879 Ry
     Harris-Foulkes estimate   =   -2990.53131821 Ry
     estimated scf accuracy    <       0.00187707 Ry

     iteration #  4     ecut=    50.00 Ry     beta=0.70
     Davidson diagonalization with overlap
     ethr =  7.33E-07,  avg # of iterations =  7.0

     total cpu time spent up to now is       93.9 secs

     total energy              =   -2990.53055327 Ry
     Harris-Foulkes estimate   =   -2990.53248342 Ry
     estimated scf accuracy    <       0.00599998 Ry

     iteration #  5     ecut=    50.00 Ry     beta=0.70
     Davidson diagonalization with overlap
     ethr =  7.33E-07,  avg # of iterations =  4.0

     total cpu time spent up to now is      110.9 secs

     total energy              =   -2990.53145624 Ry
     Harris-Foulkes estimate   =   -2990.53156196 Ry
     estimated scf accuracy    <       0.00029938 Ry

     iteration #  6     ecut=    50.00 Ry     beta=0.70
     Davidson diagonalization with overlap
     ethr =  1.17E-07,  avg # of iterations =  3.0

     total cpu time spent up to now is      124.1 secs

     total energy              =   -2990.53151054 Ry
     Harris-Foulkes estimate   =   -2990.53152820 Ry
     estimated scf accuracy    <       0.00005136 Ry

     iteration #  7     ecut=    50.00 Ry     beta=0.70
     Davidson diagonalization with overlap
     ethr =  2.01E-08,  avg # of iterations =  2.0

     total cpu time spent up to now is      136.9 secs

     total energy              =   -2990.53151962 Ry
     Harris-Foulkes estimate   =   -2990.53152110 Ry
     estimated scf accuracy    <       0.00000337 Ry

     iteration #  8     ecut=    50.00 Ry     beta=0.70
     Davidson diagonalization with overlap
     ethr =  1.32E-09,  avg # of iterations =  3.0

     total cpu time spent up to now is      153.1 secs

     total energy              =   -2990.53152067 Ry
     Harris-Foulkes estimate   =   -2990.53152086 Ry
     estimated scf accuracy    <       0.00000041 Ry

     iteration #  9     ecut=    50.00 Ry     beta=0.70
     Davidson diagonalization with overlap
     ethr =  1.59E-10,  avg # of iterations =  3.0

     total cpu time spent up to now is      167.3 secs

     total energy              =   -2990.53152068 Ry
     Harris-Foulkes estimate   =   -2990.53152078 Ry
     estimated scf accuracy    <       0.00000017 Ry

     iteration # 10     ecut=    50.00 Ry     beta=0.70
     Davidson diagonalization with overlap
     ethr =  6.55E-11,  avg # of iterations =  3.0

     total cpu time spent up to now is      180.3 secs

     total energy              =   -2990.53152066 Ry
     Harris-Foulkes estimate   =   -2990.53152071 Ry
     estimated scf accuracy    <       0.00000005 Ry

     iteration # 11     ecut=    50.00 Ry     beta=0.70
     Davidson diagonalization with overlap
     ethr =  2.06E-11,  avg # of iterations =  2.0

     total cpu time spent up to now is      193.3 secs

     total energy              =   -2990.53152067 Ry
     Harris-Foulkes estimate   =   -2990.53152067 Ry
     estimated scf accuracy    <          1.7E-09 Ry

     iteration # 12     ecut=    50.00 Ry     beta=0.70
     Davidson diagonalization with overlap
     ethr =  6.53E-13,  avg # of iterations =  3.0

     total cpu time spent up to now is      211.9 secs

     total energy              =   -2990.53152067 Ry
     Harris-Foulkes estimate   =   -2990.53152067 Ry
     estimated scf accuracy    <          1.2E-09 Ry

     iteration # 13     ecut=    50.00 Ry     beta=0.70
     Davidson diagonalization with overlap
     ethr =  4.62E-13,  avg # of iterations =  2.0

     total cpu time spent up to now is      225.3 secs

     End of self-consistent calculation

          k = 0.2500 0.2500 0.2500 ( 52563 PWs)   bands (ev):

    -5.6250  -5.1009  -5.0946  -5.0940  -4.6010  -4.5949  -4.5942  -4.1620
    -4.0673  -4.0616  -4.0604  -3.6570  -3.6487  -3.6464  -3.6451  -3.6451
    -3.6432  -3.4615  -3.4529  -3.4518  -2.9608  -2.9565  -2.9527  -2.5942
    -2.5883  -2.5864  -2.4320  -2.4216  -2.4202  -2.4186  -2.4178  -2.4160
    -0.8913  -0.8788  -0.8776  -0.8754  -0.8726  -0.8713  -0.7812  -0.7807
    -0.7764  -0.6666  -0.6606  -0.6546  -0.5886  -0.5784  -0.5740   0.1226
     0.2017   0.2103   0.2109   0.2134   0.2175   0.2197   1.0748   1.0852
     1.0888   1.4128   1.4202   1.4220   2.0229   2.0276   2.0297   2.0301
     2.0309   2.0343   2.0863   2.0904   2.0915   2.6363   2.6381   2.6400
     2.7401   2.7408   2.7438   2.7452   2.7474   2.7494   2.7937   2.7994
     2.8030   3.0982   3.1069   3.1079   3.1088   3.1096   3.1128   3.3707
     3.3734   3.3749   3.3816   3.3900   3.3907   3.7270   3.7343   3.7362
     3.7484   3.7546   3.7572   3.8370   3.8405   3.8446   4.0997   4.1099
     4.1124   4.1145   4.1154   4.1170   4.1513   4.1546   4.1592   4.4090
     4.4711   4.4733   4.4759   4.7121   4.7158   4.7212   4.7678   4.7766
     4.7787   4.9325   4.9423   5.2415   5.2451   5.2526   5.7207   5.7320
     6.9326   6.9403   6.9409   7.3714   7.3778   7.3834   7.6002   7.8579
     7.8641   7.8685   7.9872   7.9878   7.9958   8.1485   8.1510   8.1560
     8.1658   8.1712   8.1727   8.3909   8.3966   8.4015   8.4028   8.4036
     8.4077   8.4502

          k =-0.2500 0.2500-0.2500 ( 52563 PWs)   bands (ev):

    -5.6251  -5.0996  -5.0961  -5.0931  -4.6001  -4.5964  -4.5938  -4.1644
    -4.0668  -4.0639  -4.0602  -3.6528  -3.6522  -3.6488  -3.6467  -3.6421
    -3.6370  -3.4578  -3.4568  -3.4475  -2.9647  -2.9599  -2.9567  -2.5922
    -2.5896  -2.5850  -2.4265  -2.4259  -2.4227  -2.4204  -2.4166  -2.4105
    -0.8854  -0.8840  -0.8800  -0.8780  -0.8734  -0.8721  -0.7841  -0.7807
    -0.7794  -0.6691  -0.6641  -0.6580  -0.5766  -0.5726  -0.5662   0.1301
     0.2016   0.2048   0.2087   0.2104   0.2146   0.2155   1.0848   1.0885
     1.0899   1.4154   1.4157   1.4237   2.0243   2.0251   2.0294   2.0295
     2.0305   2.0348   2.0847   2.0861   2.0908   2.6404   2.6422   2.6435
     2.7342   2.7355   2.7420   2.7442   2.7467   2.7473   2.7921   2.7929
     2.7987   3.1020   3.1052   3.1072   3.1080   3.1116   3.1126   3.3675
     3.3704   3.3734   3.3822   3.3832   3.3899   3.7342   3.7370   3.7380
     3.7555   3.7600   3.7639   3.8346   3.8399   3.8405   4.1124   4.1134
     4.1145   4.1160   4.1176   4.1275   4.1483   4.1541   4.1555   4.4172
     4.4653   4.4686   4.4719   4.7085   4.7140   4.7150   4.7795   4.7844
     4.7874   4.9300   4.9401   5.2356   5.2429   5.2441   5.7163   5.7272
     6.9315   6.9319   6.9400   7.3719   7.3772   7.3787   7.5972   7.8558
     7.8620   7.8628   7.9875   7.9959   7.9959   8.1471   8.1513   8.1536
     8.1666   8.1670   8.1723   8.3974   8.4009   8.4039   8.4067   8.4081
     8.4081   8.4457

          k = 0.2500-0.2500-0.2500 ( 52563 PWs)   bands (ev):

    -5.6250  -5.1009  -5.0946  -5.0940  -4.6010  -4.5949  -4.5942  -4.1620
    -4.0673  -4.0616  -4.0604  -3.6570  -3.6487  -3.6464  -3.6451  -3.6451
    -3.6432  -3.4615  -3.4529  -3.4518  -2.9608  -2.9565  -2.9527  -2.5942
    -2.5883  -2.5864  -2.4320  -2.4216  -2.4202  -2.4186  -2.4178  -2.4160
    -0.8913  -0.8788  -0.8776  -0.8754  -0.8726  -0.8713  -0.7812  -0.7807
    -0.7764  -0.6666  -0.6606  -0.6546  -0.5886  -0.5784  -0.5740   0.1226
     0.2017   0.2103   0.2109   0.2134   0.2175   0.2197   1.0748   1.0852
     1.0888   1.4128   1.4202   1.4220   2.0229   2.0276   2.0297   2.0301
     2.0309   2.0343   2.0863   2.0904   2.0915   2.6363   2.6381   2.6400
     2.7401   2.7408   2.7438   2.7452   2.7474   2.7494   2.7937   2.7994
     2.8030   3.0982   3.1069   3.1079   3.1088   3.1096   3.1128   3.3707
     3.3734   3.3749   3.3816   3.3900   3.3907   3.7270   3.7343   3.7362
     3.7484   3.7546   3.7572   3.8370   3.8405   3.8446   4.0997   4.1099
     4.1124   4.1145   4.1154   4.1170   4.1513   4.1546   4.1592   4.4090
     4.4711   4.4733   4.4759   4.7121   4.7158   4.7212   4.7678   4.7766
     4.7787   4.9325   4.9423   5.2415   5.2451   5.2526   5.7207   5.7320
     6.9326   6.9403   6.9409   7.3714   7.3778   7.3834   7.6002   7.8579
     7.8641   7.8685   7.9872   7.9878   7.9958   8.1485   8.1510   8.1560
     8.1658   8.1712   8.1727   8.3909   8.3966   8.4015   8.4028   8.4036
     8.4077   8.4502

     the Fermi energy is     6.3274 ev

!    total energy              =   -2990.53152067 Ry
     Harris-Foulkes estimate   =   -2990.53152067 Ry
     estimated scf accuracy    <          2.5E-10 Ry

     total all-electron energy =    -37124.667074 Ry

     The total energy is the sum of the following terms:

     one-electron contribution =     178.60608546 Ry
     hartree contribution      =      35.70165046 Ry
     xc contribution           =    -391.44198758 Ry
     ewald contribution        =    -534.00596555 Ry
     one-center paw contrib.   =   -2279.39130346 Ry
     smearing contrib. (-TS)   =       0.00000000 Ry

     convergence has been achieved in  13 iterations

     Forces acting on atoms (Ry/au):

     atom    1 type  1   force =    -0.01642295   -0.00011472   -0.00011472
     atom    2 type  1   force =     0.00002243   -0.00000899   -0.00000899
     atom    3 type  1   force =    -0.00046842   -0.00010883    0.00010906
     atom    4 type  1   force =    -0.00000688   -0.00001026    0.00000994
     atom    5 type  1   force =    -0.00046842    0.00010906   -0.00010883
     atom    6 type  1   force =    -0.00000688    0.00000994   -0.00001026
     atom    7 type  1   force =    -0.00100221    0.00011429    0.00011429
     atom    8 type  1   force =     0.00002345    0.00000916    0.00000916
     atom    9 type  1   force =    -0.01642197    0.00011446    0.00011446
     atom   10 type  1   force =     0.00002134    0.00000914    0.00000914
     atom   11 type  1   force =    -0.00046857    0.00010939   -0.00010955
     atom   12 type  1   force =    -0.00000669    0.00000989   -0.00000954
     atom   13 type  1   force =    -0.00046857   -0.00010955    0.00010939
     atom   14 type  1   force =    -0.00000669   -0.00000954    0.00000989
     atom   15 type  1   force =    -0.00100294   -0.00011397   -0.00011397
     atom   16 type  1   force =     0.00002420   -0.00000921   -0.00000921
     atom   17 type  1   force =     0.00046341   -0.00033730    0.00033821
     atom   18 type  1   force =     0.00047660    0.00011947   -0.00011993
     atom   19 type  1   force =     0.00027431    0.00021742   -0.00018665
     atom   20 type  1   force =     0.00028028   -0.00024204   -0.00003831
     atom   21 type  1   force =     0.00027364    0.00018638   -0.00021819
     atom   22 type  1   force =     0.00028095    0.00003761    0.00024228
     atom   23 type  1   force =     0.00008525   -0.00006791    0.00006790
     atom   24 type  1   force =     0.00008593    0.00008578   -0.00008503
     atom   25 type  1   force =     0.00046341    0.00033821   -0.00033730
     atom   26 type  1   force =     0.00047660   -0.00011993    0.00011947
     atom   27 type  1   force =     0.00027364   -0.00021819    0.00018638
     atom   28 type  1   force =     0.00028095    0.00024228    0.00003761
     atom   29 type  1   force =     0.00027431   -0.00018665    0.00021742
     atom   30 type  1   force =     0.00028028   -0.00003831   -0.00024204
     atom   31 type  1   force =     0.00008525    0.00006790   -0.00006791
     atom   32 type  1   force =     0.00008593   -0.00008503    0.00008578
     atom   33 type  1   force =    -0.00003393   -0.00000735   -0.00000735
     atom   34 type  1   force =     0.00418716   -0.00267659   -0.00267659
     atom   35 type  1   force =     0.00005220    0.00000193   -0.00000157
     atom   36 type  1   force =    -0.00012128    0.00001124   -0.00001119
     atom   37 type  1   force =     0.00005220   -0.00000157    0.00000193
     atom   38 type  1   force =    -0.00012128   -0.00001119    0.00001124
     atom   39 type  1   force =    -0.00003373    0.00000694    0.00000694
     atom   40 type  1   force =     0.00418695    0.00267654    0.00267654
     atom   41 type  1   force =    -0.00002437    0.00000053    0.00000053
     atom   42 type  1   force =     0.00786292   -0.00000046   -0.00000046
     atom   43 type  1   force =     0.00005211   -0.00000045    0.00000007
     atom   44 type  1   force =    -0.00012088    0.00000030   -0.00000045
     atom   45 type  1   force =     0.00005211    0.00000007   -0.00000045
     atom   46 type  1   force =    -0.00012088   -0.00000045    0.00000030
     atom   47 type  1   force =    -0.00004328   -0.00000020   -0.00000020
     atom   48 type  1   force =     0.00051254    0.00000050    0.00000050
     atom   49 type  1   force =     0.00375455    0.00244465   -0.00243165
     atom   50 type  1   force =     0.00001505    0.00001139   -0.00000966
     atom   51 type  1   force =     0.00375347   -0.00244486    0.00243157
     atom   52 type  1   force =     0.00001567   -0.00001101    0.00000948
     atom   53 type  1   force =     0.00019453    0.00002430   -0.00000914
     atom   54 type  1   force =     0.00000600   -0.00000248    0.00000445
     atom   55 type  1   force =     0.00019419   -0.00002395    0.00000921
     atom   56 type  1   force =     0.00000680    0.00000218   -0.00000421
     atom   57 type  1   force =     0.00375455   -0.00243165    0.00244465
     atom   58 type  1   force =     0.00001505   -0.00000966    0.00001139
     atom   59 type  1   force =     0.00019453   -0.00000914    0.00002430
     atom   60 type  1   force =     0.00000600    0.00000445   -0.00000248
     atom   61 type  1   force =     0.00375347    0.00243157   -0.00244486
     atom   62 type  1   force =     0.00001567    0.00000948   -0.00001101
     atom   63 type  1   force =     0.00019419    0.00000921   -0.00002395
     atom   64 type  1   force =     0.00000680   -0.00000421    0.00000218

     Total force =     0.027841     Total SCF correction =     0.000030

     Writing output data file pwscf.save
 
     init_run     :      6.72s CPU      6.85s WALL (       1 calls)
     electrons    :    214.70s CPU    218.43s WALL (       1 calls)
     forces       :      3.23s CPU      3.34s WALL (       1 calls)

     Called by init_run:
     wfcinit      :      6.13s CPU      6.20s WALL (       1 calls)
     potinit      :      0.24s CPU      0.24s WALL (       1 calls)

     Called by electrons:
     c_bands      :    191.37s CPU    194.78s WALL (      14 calls)
     sum_band     :     19.17s CPU     19.32s WALL (      14 calls)
     v_of_rho     :      0.69s CPU      0.69s WALL (      14 calls)
     newd         :      1.00s CPU      1.02s WALL (      14 calls)
     PAW_pot      :      2.33s CPU      2.34s WALL (      14 calls)
     mix_rho      :      0.32s CPU      0.32s WALL (      14 calls)

     Called by c_bands:
     init_us_2    :      2.03s CPU      2.03s WALL (      90 calls)
     cegterg      :    187.61s CPU    190.56s WALL (      42 calls)

     Called by sum_band:
     sum_band:bec :      0.03s CPU      0.03s WALL (      42 calls)
     addusdens    :      1.01s CPU      1.12s WALL (      14 calls)

     Called by *egterg:
     h_psi        :     89.19s CPU     89.41s WALL (     186 calls)
     s_psi        :     22.87s CPU     22.90s WALL (     186 calls)
     g_psi        :      0.79s CPU      0.79s WALL (     141 calls)
     cdiaghg      :     27.25s CPU     27.27s WALL (     180 calls)

     Called by h_psi:
     add_vuspsi   :     22.86s CPU     22.90s WALL (     186 calls)

     General routines
     calbec       :     35.25s CPU     35.32s WALL (     240 calls)
     fft          :      0.40s CPU      0.41s WALL (     195 calls)
     fftw         :     44.29s CPU     44.45s WALL (   42688 calls)
     davcio       :      0.00s CPU      0.01s WALL (       3 calls)
 
     Parallel routines
     fft_scatter  :     13.32s CPU     13.13s WALL (   42883 calls)
 
     PWSCF        :  3m44.95s CPU     4m 2.14s WALL

 
   This run was terminated on:  13:36:24   3Feb2016            

=------------------------------------------------------------------------------=
   JOB DONE.
=------------------------------------------------------------------------------=
