
     Program PWSCF v.5.3.0 (svn rev. 11974) starts on  3Feb2016 at 13:44:45 

     This program is part of the open-source Quantum ESPRESSO suite
     for quantum simulation of materials; please cite
         "P. Giannozzi et al., J. Phys.:Condens. Matter 21 395502 (2009);
          URL http://www.quantum-espresso.org", 
     in publications or presentations arising from this work. More details at
     http://www.quantum-espresso.org/quote

     Parallel version (MPI), running on    16 processors
     R & G space division:  proc/nbgrp/npool/nimage =      16
     Reading input from Si.in

     Current dimensions of program PWSCF are:
     Max number of different atomic species (ntypx) = 10
     Max number of k-points (npk) =  40000
     Max angular momentum in pseudopotentials (lmaxx) =  3
               file Si.pbe-n-kjpaw_psl.0.1.UPF: wavefunction(s)  3S renormalized

     Subspace diagonalization in iterative solution of the eigenvalue problem:
     one sub-group per k-point group (pool) will be used
     scalapack distributed-memory algorithm (size of sub-group:  2*  2 procs)

 
     Parallelization info
     --------------------
     sticks:   dense  smooth     PW     G-vecs:    dense   smooth      PW
     Min         424     424    109                26332    26332    3467
     Max         425     425    110                26336    26336    3472
     Sum        6785    6785   1757               421349   421349   55515
 


     bravais-lattice index     =            0
     lattice parameter (alat)  =      20.6591  a.u.
     unit-cell volume          =    8817.2783 (a.u.)^3
     number of atoms/cell      =           64
     number of atomic types    =            1
     number of electrons       =       256.00
     number of Kohn-Sham states=          154
     kinetic-energy cutoff     =      50.0000  Ry
     charge density cutoff     =     200.0000  Ry
     convergence threshold     =      1.0E-09
     mixing beta               =       0.7000
     number of iterations used =            8  plain     mixing
     Exchange-correlation      =  SLA  PW   PBX  PBC ( 1  4  3  4 0 0)

     celldm(1)=  20.659106  celldm(2)=   0.000000  celldm(3)=   0.000000
     celldm(4)=   0.000000  celldm(5)=   0.000000  celldm(6)=   0.000000

     crystal axes: (cart. coord. in units of alat)
               a(1) = (   1.000000   0.000000   0.000000 )  
               a(2) = (   0.000000   1.000000   0.000000 )  
               a(3) = (   0.000000   0.000000   1.000000 )  

     reciprocal axes: (cart. coord. in units 2 pi/alat)
               b(1) = (  1.000000  0.000000  0.000000 )  
               b(2) = (  0.000000  1.000000  0.000000 )  
               b(3) = (  0.000000  0.000000  1.000000 )  


     PseudoPot. # 1 for Si read from file:
     /home/togo/espresso/pseudo/Si.pbe-n-kjpaw_psl.0.1.UPF
     MD5 check sum: b9d333a40e496bef61db012f150758bf
     Pseudo is Projector augmented-wave + core cor, Zval =  4.0
     Generated using "atomic" code by A. Dal Corso  v.5.0.2 svn rev. 9415
     Shape of augmentation charge: PSQ
     Using radial grid of 1141 points,  4 beta functions with: 
                l(1) =   0
                l(2) =   0
                l(3) =   1
                l(4) =   1
     Q(r) pseudized with 0 coefficients 


     atomic species   valence    mass     pseudopotential
        Si             4.00    28.08550     Si( 1.00)

      2 Sym. Ops. (no inversion) found ( 1 have fractional translation)



   Cartesian axes

     site n.     atom                  positions (alat units)
         1           Si  tau(   1) = (   0.4404043   0.4375000   0.4375000  )
         2           Si  tau(   2) = (   0.9375000   0.4375000   0.4375000  )
         3           Si  tau(   3) = (   0.4375000   0.9375000   0.4375000  )
         4           Si  tau(   4) = (   0.9375000   0.9375000   0.4375000  )
         5           Si  tau(   5) = (   0.4375000   0.4375000   0.9375000  )
         6           Si  tau(   6) = (   0.9375000   0.4375000   0.9375000  )
         7           Si  tau(   7) = (   0.4375000   0.9375000   0.9375000  )
         8           Si  tau(   8) = (   0.9375000   0.9375000   0.9375000  )
         9           Si  tau(   9) = (   0.4375000   0.1875000   0.1875000  )
        10           Si  tau(  10) = (   0.9375000   0.1875000   0.1875000  )
        11           Si  tau(  11) = (   0.4375000   0.6875000   0.1875000  )
        12           Si  tau(  12) = (   0.9375000   0.6875000   0.1875000  )
        13           Si  tau(  13) = (   0.4375000   0.1875000   0.6875000  )
        14           Si  tau(  14) = (   0.9375000   0.1875000   0.6875000  )
        15           Si  tau(  15) = (   0.4375000   0.6875000   0.6875000  )
        16           Si  tau(  16) = (   0.9375000   0.6875000   0.6875000  )
        17           Si  tau(  17) = (   0.1875000   0.4375000   0.1875000  )
        18           Si  tau(  18) = (   0.6875000   0.4375000   0.1875000  )
        19           Si  tau(  19) = (   0.1875000   0.9375000   0.1875000  )
        20           Si  tau(  20) = (   0.6875000   0.9375000   0.1875000  )
        21           Si  tau(  21) = (   0.1875000   0.4375000   0.6875000  )
        22           Si  tau(  22) = (   0.6875000   0.4375000   0.6875000  )
        23           Si  tau(  23) = (   0.1875000   0.9375000   0.6875000  )
        24           Si  tau(  24) = (   0.6875000   0.9375000   0.6875000  )
        25           Si  tau(  25) = (   0.1875000   0.1875000   0.4375000  )
        26           Si  tau(  26) = (   0.6875000   0.1875000   0.4375000  )
        27           Si  tau(  27) = (   0.1875000   0.6875000   0.4375000  )
        28           Si  tau(  28) = (   0.6875000   0.6875000   0.4375000  )
        29           Si  tau(  29) = (   0.1875000   0.1875000   0.9375000  )
        30           Si  tau(  30) = (   0.6875000   0.1875000   0.9375000  )
        31           Si  tau(  31) = (   0.1875000   0.6875000   0.9375000  )
        32           Si  tau(  32) = (   0.6875000   0.6875000   0.9375000  )
        33           Si  tau(  33) = (   0.0625000   0.0625000   0.0625000  )
        34           Si  tau(  34) = (   0.5625000   0.0625000   0.0625000  )
        35           Si  tau(  35) = (   0.0625000   0.5625000   0.0625000  )
        36           Si  tau(  36) = (   0.5625000   0.5595957   0.0625000  )
        37           Si  tau(  37) = (   0.0625000   0.0625000   0.5625000  )
        38           Si  tau(  38) = (   0.5625000   0.0625000   0.5625000  )
        39           Si  tau(  39) = (   0.0625000   0.5625000   0.5625000  )
        40           Si  tau(  40) = (   0.5625000   0.5625000   0.5625000  )
        41           Si  tau(  41) = (   0.0625000   0.3125000   0.3125000  )
        42           Si  tau(  42) = (   0.5625000   0.3125000   0.3125000  )
        43           Si  tau(  43) = (   0.0625000   0.8125000   0.3125000  )
        44           Si  tau(  44) = (   0.5625000   0.8125000   0.3125000  )
        45           Si  tau(  45) = (   0.0625000   0.3125000   0.8125000  )
        46           Si  tau(  46) = (   0.5625000   0.3125000   0.8125000  )
        47           Si  tau(  47) = (   0.0625000   0.8125000   0.8125000  )
        48           Si  tau(  48) = (   0.5625000   0.8125000   0.8125000  )
        49           Si  tau(  49) = (   0.3125000   0.0625000   0.3125000  )
        50           Si  tau(  50) = (   0.8125000   0.0625000   0.3125000  )
        51           Si  tau(  51) = (   0.3125000   0.5625000   0.3125000  )
        52           Si  tau(  52) = (   0.8125000   0.5625000   0.3125000  )
        53           Si  tau(  53) = (   0.3125000   0.0625000   0.8125000  )
        54           Si  tau(  54) = (   0.8125000   0.0625000   0.8125000  )
        55           Si  tau(  55) = (   0.3125000   0.5625000   0.8125000  )
        56           Si  tau(  56) = (   0.8125000   0.5625000   0.8125000  )
        57           Si  tau(  57) = (   0.3125000   0.3125000   0.0625000  )
        58           Si  tau(  58) = (   0.8125000   0.3125000   0.0625000  )
        59           Si  tau(  59) = (   0.3125000   0.8125000   0.0625000  )
        60           Si  tau(  60) = (   0.8125000   0.8125000   0.0625000  )
        61           Si  tau(  61) = (   0.3125000   0.3125000   0.5625000  )
        62           Si  tau(  62) = (   0.8125000   0.3125000   0.5625000  )
        63           Si  tau(  63) = (   0.3125000   0.8125000   0.5625000  )
        64           Si  tau(  64) = (   0.8125000   0.8125000   0.5625000  )

     number of k points=     3  gaussian smearing, width (Ry)=  0.0100
                       cart. coord. in units 2pi/alat
        k(    1) = (   0.2500000   0.2500000   0.2500000), wk =   0.5000000
        k(    2) = (  -0.2500000   0.2500000  -0.2500000), wk =   1.0000000
        k(    3) = (   0.2500000   0.2500000  -0.2500000), wk =   0.5000000

     Dense  grid:   421349 G-vectors     FFT dimensions: (  96,  96,  96)

     Largest allocated arrays     est. size (Mb)     dimensions
        Kohn-Sham Wavefunctions         7.72 Mb     (    3285,  154)
        NL pseudopotentials            25.66 Mb     (    3285,  512)
        Each V/rho on FFT grid          0.84 Mb     (   55296)
        Each G-vector array             0.20 Mb     (   26336)
        G-vector shells                 0.01 Mb     (    1719)
     Largest temporary arrays     est. size (Mb)     dimensions
        Auxiliary wavefunctions        30.88 Mb     (    3285,  616)
        Each subspace H/S matrix        1.45 Mb     (     308,  308)
        Each <psi_i|beta_j> matrix      1.20 Mb     (     512,  154)
        Arrays for rho mixing           6.75 Mb     (   55296,    8)

     Check: negative/imaginary core charge=   -0.000001    0.000000

     Initial potential from superposition of free atoms

     starting charge  255.96421, renormalised to  256.00000
     Starting wfc are  256 randomized atomic wfcs
     Checking if some PAW data can be deallocated... 

     total cpu time spent up to now is       10.8 secs

     per-process dynamical memory:   115.8 Mb

     Self-consistent Calculation

     iteration #  1     ecut=    50.00 Ry     beta=0.70
     Davidson diagonalization with overlap
     ethr =  1.00E-02,  avg # of iterations =  3.0

     Threshold (ethr) on eigenvalues was too large:
     Diagonalizing with lowered threshold

     Davidson diagonalization with overlap
     ethr =  7.00E-04,  avg # of iterations =  1.0

     total cpu time spent up to now is       55.6 secs

     total energy              =   -2990.45689675 Ry
     Harris-Foulkes estimate   =   -2990.87650961 Ry
     estimated scf accuracy    <       1.77360980 Ry

     iteration #  2     ecut=    50.00 Ry     beta=0.70
     Davidson diagonalization with overlap
     ethr =  6.93E-04,  avg # of iterations =  1.0

     total cpu time spent up to now is       67.2 secs

     total energy              =   -2990.52361671 Ry
     Harris-Foulkes estimate   =   -2990.52744410 Ry
     estimated scf accuracy    <       0.07625301 Ry

     iteration #  3     ecut=    50.00 Ry     beta=0.70
     Davidson diagonalization with overlap
     ethr =  2.98E-05,  avg # of iterations = 10.7

     total cpu time spent up to now is      102.2 secs

     total energy              =   -2990.53066969 Ry
     Harris-Foulkes estimate   =   -2990.53133341 Ry
     estimated scf accuracy    <       0.00182932 Ry

     iteration #  4     ecut=    50.00 Ry     beta=0.70
     Davidson diagonalization with overlap
     ethr =  7.15E-07,  avg # of iterations =  5.0

     total cpu time spent up to now is      127.8 secs

     total energy              =   -2990.53070081 Ry
     Harris-Foulkes estimate   =   -2990.53239021 Ry
     estimated scf accuracy    <       0.00518869 Ry

     iteration #  5     ecut=    50.00 Ry     beta=0.70
     Davidson diagonalization with overlap
     ethr =  7.15E-07,  avg # of iterations =  4.3

     total cpu time spent up to now is      146.9 secs

     total energy              =   -2990.53148999 Ry
     Harris-Foulkes estimate   =   -2990.53158505 Ry
     estimated scf accuracy    <       0.00026501 Ry

     iteration #  6     ecut=    50.00 Ry     beta=0.70
     Davidson diagonalization with overlap
     ethr =  1.04E-07,  avg # of iterations =  3.0

     total cpu time spent up to now is      160.3 secs

     total energy              =   -2990.53153931 Ry
     Harris-Foulkes estimate   =   -2990.53155735 Ry
     estimated scf accuracy    <       0.00005340 Ry

     iteration #  7     ecut=    50.00 Ry     beta=0.70
     Davidson diagonalization with overlap
     ethr =  2.09E-08,  avg # of iterations =  2.0

     total cpu time spent up to now is      173.1 secs

     total energy              =   -2990.53154859 Ry
     Harris-Foulkes estimate   =   -2990.53154976 Ry
     estimated scf accuracy    <       0.00000264 Ry

     iteration #  8     ecut=    50.00 Ry     beta=0.70
     Davidson diagonalization with overlap
     ethr =  1.03E-09,  avg # of iterations =  3.0

     total cpu time spent up to now is      190.0 secs

     total energy              =   -2990.53154956 Ry
     Harris-Foulkes estimate   =   -2990.53154976 Ry
     estimated scf accuracy    <       0.00000048 Ry

     iteration #  9     ecut=    50.00 Ry     beta=0.70
     Davidson diagonalization with overlap
     ethr =  1.86E-10,  avg # of iterations =  3.0

     total cpu time spent up to now is      203.7 secs

     total energy              =   -2990.53154956 Ry
     Harris-Foulkes estimate   =   -2990.53154967 Ry
     estimated scf accuracy    <       0.00000020 Ry

     iteration # 10     ecut=    50.00 Ry     beta=0.70
     Davidson diagonalization with overlap
     ethr =  7.81E-11,  avg # of iterations =  2.0

     total cpu time spent up to now is      216.1 secs

     total energy              =   -2990.53154955 Ry
     Harris-Foulkes estimate   =   -2990.53154960 Ry
     estimated scf accuracy    <       0.00000004 Ry

     iteration # 11     ecut=    50.00 Ry     beta=0.70
     Davidson diagonalization with overlap
     ethr =  1.54E-11,  avg # of iterations =  2.0

     total cpu time spent up to now is      229.2 secs

     total energy              =   -2990.53154956 Ry
     Harris-Foulkes estimate   =   -2990.53154956 Ry
     estimated scf accuracy    <          1.5E-09 Ry

     iteration # 12     ecut=    50.00 Ry     beta=0.70
     Davidson diagonalization with overlap
     ethr =  5.79E-13,  avg # of iterations =  3.0

     total cpu time spent up to now is      248.3 secs

     total energy              =   -2990.53154956 Ry
     Harris-Foulkes estimate   =   -2990.53154956 Ry
     estimated scf accuracy    <          1.5E-09 Ry

     iteration # 13     ecut=    50.00 Ry     beta=0.70
     Davidson diagonalization with overlap
     ethr =  5.79E-13,  avg # of iterations =  2.3

     total cpu time spent up to now is      266.3 secs

     End of self-consistent calculation

          k = 0.2500 0.2500 0.2500 ( 52563 PWs)   bands (ev):

    -5.6250  -5.1011  -5.0953  -5.0930  -4.6012  -4.5955  -4.5934  -4.1621
    -4.0678  -4.0620  -4.0593  -3.6554  -3.6532  -3.6473  -3.6443  -3.6436
    -3.6414  -3.4601  -3.4542  -3.4521  -2.9620  -2.9558  -2.9524  -2.5956
    -2.5876  -2.5857  -2.4300  -2.4254  -2.4212  -2.4188  -2.4163  -2.4145
    -0.8888  -0.8815  -0.8782  -0.8760  -0.8718  -0.8709  -0.7852  -0.7779
    -0.7753  -0.6640  -0.6611  -0.6559  -0.5858  -0.5795  -0.5759   0.1225
     0.2026   0.2079   0.2106   0.2135   0.2193   0.2198   1.0795   1.0818
     1.0875   1.4152   1.4188   1.4211   2.0251   2.0263   2.0278   2.0304
     2.0313   2.0340   2.0863   2.0911   2.0912   2.6347   2.6395   2.6402
     2.7390   2.7405   2.7430   2.7438   2.7485   2.7515   2.7946   2.7998
     2.8023   3.1025   3.1035   3.1065   3.1087   3.1107   3.1125   3.3714
     3.3724   3.3740   3.3841   3.3883   3.3909   3.7291   3.7321   3.7358
     3.7489   3.7554   3.7565   3.8378   3.8396   3.8446   4.1022   4.1100
     4.1107   4.1142   4.1154   4.1166   4.1520   4.1537   4.1596   4.4088
     4.4714   4.4726   4.4760   4.7131   4.7149   4.7214   4.7710   4.7733
     4.7781   4.9350   4.9400   5.2421   5.2442   5.2528   5.7236   5.7293
     6.9347   6.9388   6.9402   7.3729   7.3754   7.3842   7.6002   7.8595
     7.8624   7.8685   7.9870   7.9888   7.9950   8.1494   8.1500   8.1551
     8.1682   8.1688   8.1736   8.3945   8.3974   8.3981   8.4023   8.4035
     8.4074   8.4508

          k =-0.2500 0.2500-0.2500 ( 52563 PWs)   bands (ev):

    -5.6251  -5.1000  -5.0967  -5.0923  -4.6003  -4.5971  -4.5928  -4.1631
    -4.0668  -4.0639  -4.0594  -3.6549  -3.6496  -3.6488  -3.6456  -3.6438
    -3.6397  -3.4593  -3.4548  -3.4502  -2.9617  -2.9600  -2.9540  -2.5944
    -2.5892  -2.5842  -2.4286  -2.4234  -2.4228  -2.4189  -2.4177  -2.4132
    -0.8863  -0.8820  -0.8806  -0.8768  -0.8750  -0.8694  -0.7856  -0.7805
    -0.7751  -0.6679  -0.6621  -0.6565  -0.5833  -0.5766  -0.5681   0.1263
     0.2043   0.2058   0.2073   0.2118   0.2152   0.2203   1.0799   1.0848
     1.0914   1.4142   1.4181   1.4226   2.0245   2.0258   2.0284   2.0300
     2.0313   2.0343   2.0855   2.0877   2.0918   2.6371   2.6400   2.6430
     2.7371   2.7391   2.7418   2.7438   2.7478   2.7487   2.7930   2.7966
     2.8005   3.1019   3.1048   3.1065   3.1077   3.1099   3.1148   3.3686
     3.3725   3.3737   3.3824   3.3865   3.3901   3.7305   3.7347   3.7381
     3.7526   3.7568   3.7606   3.8370   3.8387   3.8429   4.1056   4.1113
     4.1135   4.1147   4.1176   4.1224   4.1508   4.1527   4.1578   4.4133
     4.4674   4.4714   4.4741   4.7115   4.7137   4.7181   4.7732   4.7785
     4.7853   4.9319   4.9406   5.2395   5.2427   5.2485   5.7191   5.7289
     6.9323   6.9367   6.9396   7.3734   7.3762   7.3806   7.5987   7.8582
     7.8617   7.8656   7.9869   7.9918   7.9962   8.1483   8.1518   8.1537
     8.1653   8.1704   8.1721   8.3956   8.3984   8.4007   8.4037   8.4057
     8.4096   8.4485

          k = 0.2500 0.2500-0.2500 ( 52563 PWs)   bands (ev):

    -5.6251  -5.0995  -5.0984  -5.0908  -4.6000  -4.5988  -4.5915  -4.1641
    -4.0671  -4.0657  -4.0585  -3.6528  -3.6500  -3.6492  -3.6475  -3.6466
    -3.6333  -3.4576  -3.4555  -3.4491  -2.9647  -2.9617  -2.9549  -2.5926
    -2.5908  -2.5834  -2.4268  -2.4245  -2.4216  -2.4208  -2.4205  -2.4086
    -0.8857  -0.8843  -0.8788  -0.8780  -0.8757  -0.8706  -0.7852  -0.7831
    -0.7755  -0.6685  -0.6630  -0.6600  -0.5766  -0.5758  -0.5629   0.1300
     0.2003   0.2040   0.2091   0.2108   0.2124   0.2190   1.0831   1.0872
     1.0929   1.4156   1.4179   1.4213   2.0259   2.0264   2.0266   2.0300
     2.0307   2.0339   2.0844   2.0864   2.0912   2.6397   2.6414   2.6450
     2.7362   2.7375   2.7407   2.7435   2.7445   2.7477   2.7926   2.7929
     2.7979   3.1021   3.1050   3.1055   3.1081   3.1106   3.1151   3.3677
     3.3712   3.3728   3.3821   3.3846   3.3879   3.7337   3.7343   3.7408
     3.7566   3.7593   3.7641   3.8346   3.8393   3.8411   4.1113   4.1133
     4.1139   4.1183   4.1223   4.1224   4.1479   4.1535   4.1562   4.4172
     4.4647   4.4699   4.4713   4.7083   4.7139   4.7152   4.7793   4.7816
     4.7906   4.9324   4.9377   5.2353   5.2427   5.2444   5.7188   5.7244
     6.9311   6.9344   6.9381   7.3714   7.3771   7.3794   7.5972   7.8565
     7.8609   7.8633   7.9880   7.9946   7.9964   8.1479   8.1509   8.1535
     8.1641   8.1700   8.1716   8.3964   8.4009   8.4024   8.4032   8.4095
     8.4120   8.4463

     the Fermi energy is     6.3279 ev

!    total energy              =   -2990.53154956 Ry
     Harris-Foulkes estimate   =   -2990.53154956 Ry
     estimated scf accuracy    <          2.0E-10 Ry

     total all-electron energy =    -37124.667103 Ry

     The total energy is the sum of the following terms:

     one-electron contribution =     178.60646776 Ry
     hartree contribution      =      35.70146872 Ry
     xc contribution           =    -391.44199619 Ry
     ewald contribution        =    -534.00618489 Ry
     one-center paw contrib.   =   -2279.39130496 Ry
     smearing contrib. (-TS)   =       0.00000000 Ry

     convergence has been achieved in  13 iterations

     Forces acting on atoms (Ry/au):

     atom    1 type  1   force =    -0.01593889    0.00005805   -0.00003933
     atom    2 type  1   force =    -0.00000567   -0.00025540   -0.00002782
     atom    3 type  1   force =     0.00002823   -0.00002611   -0.00002491
     atom    4 type  1   force =    -0.00003844    0.00002083   -0.00003164
     atom    5 type  1   force =    -0.00265073   -0.00393011   -0.00270472
     atom    6 type  1   force =    -0.00004557    0.00006092   -0.00004980
     atom    7 type  1   force =    -0.00051322    0.00001304   -0.00003800
     atom    8 type  1   force =    -0.00000054   -0.00002671   -0.00002696
     atom    9 type  1   force =    -0.00049072    0.00012686    0.00007639
     atom   10 type  1   force =     0.00002670   -0.00001869   -0.00001956
     atom   11 type  1   force =     0.00195727   -0.00370135   -0.00259056
     atom   12 type  1   force =     0.00003756    0.00006805   -0.00006087
     atom   13 type  1   force =    -0.00049476   -0.00013773    0.00008297
     atom   14 type  1   force =     0.00003181    0.00001197   -0.00002104
     atom   15 type  1   force =    -0.00047621   -0.00005535   -0.00015172
     atom   16 type  1   force =     0.00002687   -0.00026233   -0.00003689
     atom   17 type  1   force =     0.00027065   -0.00004959    0.00027774
     atom   18 type  1   force =     0.00294264   -0.00404215    0.00247175
     atom   19 type  1   force =     0.00006806   -0.00003545   -0.00005073
     atom   20 type  1   force =     0.00008080    0.00000247    0.00011492
     atom   21 type  1   force =     0.00025955   -0.00014665   -0.00019925
     atom   22 type  1   force =     0.00028842    0.00017496    0.00027127
     atom   23 type  1   force =     0.00007407    0.00003105    0.00010819
     atom   24 type  1   force =     0.00006904   -0.00001710   -0.00005139
     atom   25 type  1   force =     0.00020141    0.00024931   -0.00007928
     atom   26 type  1   force =     0.00020888   -0.00026088   -0.00008749
     atom   27 type  1   force =     0.00020399   -0.00048067    0.00013663
     atom   28 type  1   force =     0.00018671    0.00029126    0.00015103
     atom   29 type  1   force =     0.00001658   -0.00010491    0.00001968
     atom   30 type  1   force =     0.00000425    0.00008892    0.00002838
     atom   31 type  1   force =     0.00000515    0.00013547    0.00006113
     atom   32 type  1   force =    -0.00243923   -0.00388730    0.00249164
     atom   33 type  1   force =    -0.00002083    0.00003844    0.00003164
     atom   34 type  1   force =     0.00025540    0.00000567    0.00002782
     atom   35 type  1   force =     0.00002611   -0.00002823    0.00002491
     atom   36 type  1   force =    -0.00005805    0.01593889    0.00003933
     atom   37 type  1   force =     0.00002671    0.00000054    0.00002696
     atom   38 type  1   force =    -0.00006092    0.00004557    0.00004980
     atom   39 type  1   force =    -0.00001304    0.00051322    0.00003800
     atom   40 type  1   force =     0.00393011    0.00265073    0.00270472
     atom   41 type  1   force =    -0.00000247   -0.00008080   -0.00011492
     atom   42 type  1   force =     0.00404215   -0.00294264   -0.00247175
     atom   43 type  1   force =     0.00003545   -0.00006806    0.00005073
     atom   44 type  1   force =     0.00004959   -0.00027065   -0.00027774
     atom   45 type  1   force =     0.00001710   -0.00006904    0.00005139
     atom   46 type  1   force =    -0.00017496   -0.00028842   -0.00027127
     atom   47 type  1   force =    -0.00003105   -0.00007407   -0.00010819
     atom   48 type  1   force =     0.00014665   -0.00025955    0.00019925
     atom   49 type  1   force =    -0.00006805   -0.00003756    0.00006087
     atom   50 type  1   force =     0.00001869   -0.00002670    0.00001956
     atom   51 type  1   force =     0.00370135   -0.00195727    0.00259056
     atom   52 type  1   force =    -0.00012686    0.00049072   -0.00007639
     atom   53 type  1   force =     0.00026233   -0.00002687    0.00003689
     atom   54 type  1   force =    -0.00001197   -0.00003181    0.00002104
     atom   55 type  1   force =     0.00005535    0.00047621    0.00015172
     atom   56 type  1   force =     0.00013773    0.00049476   -0.00008297
     atom   57 type  1   force =    -0.00029126   -0.00018671   -0.00015103
     atom   58 type  1   force =     0.00026088   -0.00020888    0.00008749
     atom   59 type  1   force =     0.00048067   -0.00020399   -0.00013663
     atom   60 type  1   force =    -0.00024931   -0.00020141    0.00007928
     atom   61 type  1   force =     0.00388730    0.00243923   -0.00249164
     atom   62 type  1   force =    -0.00008892   -0.00000425   -0.00002838
     atom   63 type  1   force =    -0.00013547   -0.00000515   -0.00006113
     atom   64 type  1   force =     0.00010491   -0.00001658   -0.00001968

     Total force =     0.027163     Total SCF correction =     0.000026

     Writing output data file pwscf.save
 
     init_run     :      7.24s CPU      9.43s WALL (       1 calls)
     electrons    :    234.39s CPU    255.74s WALL (       1 calls)
     forces       :      3.28s CPU      3.41s WALL (       1 calls)

     Called by init_run:
     wfcinit      :      6.16s CPU      7.14s WALL (       1 calls)
     potinit      :      0.24s CPU      0.25s WALL (       1 calls)

     Called by electrons:
     c_bands      :    199.99s CPU    219.12s WALL (      14 calls)
     sum_band     :     30.05s CPU     31.78s WALL (      14 calls)
     v_of_rho     :      0.69s CPU      0.68s WALL (      14 calls)
     newd         :      1.08s CPU      1.10s WALL (      14 calls)
     PAW_pot      :      2.31s CPU      2.31s WALL (      14 calls)
     mix_rho      :      0.31s CPU      0.32s WALL (      14 calls)

     Called by c_bands:
     init_us_2    :      1.81s CPU      1.82s WALL (      90 calls)
     cegterg      :    185.07s CPU    189.56s WALL (      42 calls)

     Called by sum_band:
     sum_band:bec :      0.03s CPU      0.03s WALL (      42 calls)
     addusdens    :      1.12s CPU      1.22s WALL (      14 calls)

     Called by *egterg:
     h_psi        :     88.36s CPU     88.61s WALL (     181 calls)
     s_psi        :     22.67s CPU     22.73s WALL (     181 calls)
     g_psi        :      0.78s CPU      0.78s WALL (     136 calls)
     cdiaghg      :     24.81s CPU     24.84s WALL (     175 calls)

     Called by h_psi:
     add_vuspsi   :     22.63s CPU     22.68s WALL (     181 calls)

     General routines
     calbec       :     35.16s CPU     35.22s WALL (     235 calls)
     fft          :      0.64s CPU      0.64s WALL (     195 calls)
     fftw         :     54.75s CPU     54.98s WALL (   42644 calls)
     davcio       :      0.00s CPU      0.01s WALL (       3 calls)
 
     Parallel routines
     fft_scatter  :     22.88s CPU     22.44s WALL (   42839 calls)
 
     PWSCF        :  4m 5.22s CPU     5m 1.22s WALL

 
   This run was terminated on:  13:49:46   3Feb2016            

=------------------------------------------------------------------------------=
   JOB DONE.
=------------------------------------------------------------------------------=
