<?xml version="1.0" encoding="ISO-8859-1"?>
<modeling>
 <generator>
  <i name="program" type="string">vasp </i>
  <i name="version" type="string">5.4.1  </i>
  <i name="subversion" type="string">05Feb16 (build Mar 26 2016 11:58:25) complex                          parallel </i>
  <i name="platform" type="string">IFC91_ompi </i>
  <i name="date" type="string">2017 03 12 </i>
  <i name="time" type="string">12:19:56 </i>
 </generator>
 <incar>
  <i type="string" name="PREC">accurate</i>
  <i type="int" name="IALGO">    38</i>
  <i type="logical" name="ADDGRID"> T  </i>
  <i type="int" name="NELMIN">     5</i>
  <i type="int" name="IBRION">    -1</i>
  <i name="EDIFF">      0.00000001</i>
  <i name="ENCUT">    300.00000000</i>
  <i type="logical" name="LREAL"> F  </i>
  <i type="int" name="ISMEAR">     0</i>
  <i name="SIGMA">      0.05000000</i>
  <i type="logical" name="LWAVE"> F  </i>
  <i type="logical" name="LCHARG"> F  </i>
  <v type="int" name="KPOINT_BSE">    -1     0     0     0</v>
 </incar>
 <kpoints>
  <generation param="Monkhorst-Pack">
   <v type="int" name="divisions">       2        2        2 </v>
   <v name="usershift">      0.00000000       0.00000000       0.00000000 </v>
   <v name="genvec1">      0.50000000       0.00000000       0.00000000 </v>
   <v name="genvec2">      0.00000000       0.50000000       0.00000000 </v>
   <v name="genvec3">      0.00000000       0.00000000       0.50000000 </v>
   <v name="shift">      0.50000000       0.50000000       0.50000000 </v>
  </generation>
  <varray name="kpointlist" >
   <v>       0.25000000       0.25000000       0.25000000 </v>
   <v>       0.25000000      -0.25000000       0.25000000 </v>
   <v>      -0.25000000      -0.25000000       0.25000000 </v>
  </varray>
  <varray name="weights" >
   <v>       0.50000000 </v>
   <v>       0.25000000 </v>
   <v>       0.25000000 </v>
  </varray>
 </kpoints>
 <parameters>
  <separator name="general" >
   <i type="string" name="SYSTEM">unknown system</i>
   <i type="logical" name="LCOMPAT"> F  </i>
  </separator>
  <separator name="electronic" >
   <i type="string" name="PREC">accura</i>
   <i name="ENMAX">    300.00000000</i>
   <i name="ENAUG">    322.06900000</i>
   <i name="EDIFF">      0.00000001</i>
   <i type="int" name="IALGO">    38</i>
   <i type="int" name="IWAVPR">    10</i>
   <i type="int" name="NBANDS">   164</i>
   <i name="NELECT">    256.00000000</i>
   <i type="int" name="TURBO">     0</i>
   <i type="int" name="IRESTART">     0</i>
   <i type="int" name="NREBOOT">     0</i>
   <i type="int" name="NMIN">     0</i>
   <i name="EREF">      0.00000000</i>
   <separator name="electronic smearing" >
    <i type="int" name="ISMEAR">     0</i>
    <i name="SIGMA">      0.05000000</i>
    <i name="KSPACING">      0.50000000</i>
    <i type="logical" name="KGAMMA"> T  </i>
   </separator>
   <separator name="electronic projectors" >
    <i type="logical" name="LREAL"> F  </i>
    <v name="ROPT">      0.00000000</v>
    <i type="int" name="LMAXPAW">  -100</i>
    <i type="int" name="LMAXMIX">     2</i>
    <i type="logical" name="NLSPLINE"> F  </i>
   </separator>
   <separator name="electronic startup" >
    <i type="int" name="ISTART">     0</i>
    <i type="int" name="ICHARG">     2</i>
    <i type="int" name="INIWAV">     1</i>
   </separator>
   <separator name="electronic spin" >
    <i type="int" name="ISPIN">     1</i>
    <i type="logical" name="LNONCOLLINEAR"> F  </i>
    <v name="MAGMOM">      1.00000000      1.00000000      1.00000000      1.00000000      1.00000000      1.00000000      1.00000000      1.00000000      1.00000000      1.00000000      1.00000000      1.00000000      1.00000000      1.00000000      1.00000000      1.00000000      1.00000000      1.00000000      1.00000000      1.00000000
      1.00000000      1.00000000      1.00000000      1.00000000      1.00000000      1.00000000      1.00000000      1.00000000      1.00000000      1.00000000      1.00000000      1.00000000      1.00000000      1.00000000      1.00000000      1.00000000      1.00000000      1.00000000      1.00000000      1.00000000
      1.00000000      1.00000000      1.00000000      1.00000000      1.00000000      1.00000000      1.00000000      1.00000000      1.00000000      1.00000000      1.00000000      1.00000000      1.00000000      1.00000000      1.00000000      1.00000000      1.00000000      1.00000000      1.00000000      1.00000000
      1.00000000      1.00000000      1.00000000      1.00000000</v>
    <i name="NUPDOWN">     -1.00000000</i>
    <i type="logical" name="LSORBIT"> F  </i>
    <v name="SAXIS">      0.00000000      0.00000000      1.00000000</v>
    <i type="logical" name="LSPIRAL"> F  </i>
    <v name="QSPIRAL">      0.00000000      0.00000000      0.00000000</v>
    <i type="logical" name="LZEROZ"> F  </i>
   </separator>
   <separator name="electronic exchange-correlation" >
    <i type="logical" name="LASPH"> F  </i>
    <i type="logical" name="LMETAGGA"> F  </i>
   </separator>
   <separator name="electronic convergence" >
    <i type="int" name="NELM">    60</i>
    <i type="int" name="NELMDL">    -5</i>
    <i type="int" name="NELMIN">     5</i>
    <i name="ENINI">    300.00000000</i>
    <separator name="electronic convergence detail" >
     <i type="logical" name="LDIAG"> T  </i>
     <i type="logical" name="LSUBROT"> F  </i>
     <i name="WEIMIN">      0.00000000</i>
     <i name="EBREAK">      0.00000000</i>
     <i name="DEPER">      0.30000000</i>
     <i type="int" name="NRMM">     4</i>
     <i name="TIME">      0.40000000</i>
    </separator>
   </separator>
   <separator name="electronic mixer" >
    <i name="AMIX">      0.40000000</i>
    <i name="BMIX">      1.00000000</i>
    <i name="AMIN">      0.10000000</i>
    <i name="AMIX_MAG">      1.60000000</i>
    <i name="BMIX_MAG">      1.00000000</i>
    <separator name="electronic mixer details" >
     <i type="int" name="IMIX">     4</i>
     <i type="logical" name="MIXFIRST"> F  </i>
     <i type="int" name="MAXMIX">   -45</i>
     <i name="WC">    100.00000000</i>
     <i type="int" name="INIMIX">     1</i>
     <i type="int" name="MIXPRE">     1</i>
     <i type="int" name="MREMOVE">     5</i>
    </separator>
   </separator>
   <separator name="electronic dipolcorrection" >
    <i type="logical" name="LDIPOL"> F  </i>
    <i type="logical" name="LMONO"> F  </i>
    <i type="int" name="IDIPOL">     0</i>
    <i name="EPSILON">      1.00000000</i>
    <v name="DIPOL">   -100.00000000   -100.00000000   -100.00000000</v>
    <i name="EFIELD">      0.00000000</i>
   </separator>
  </separator>
  <separator name="grids" >
   <i type="int" name="NGX">    64</i>
   <i type="int" name="NGY">    64</i>
   <i type="int" name="NGZ">    64</i>
   <i type="int" name="NGXF">   128</i>
   <i type="int" name="NGYF">   128</i>
   <i type="int" name="NGZF">   128</i>
   <i type="logical" name="ADDGRID"> T  </i>
  </separator>
  <separator name="ionic" >
   <i type="int" name="NSW">     0</i>
   <i type="int" name="IBRION">    -1</i>
   <i type="int" name="ISIF">     2</i>
   <i name="PSTRESS">      0.00000000</i>
   <i name="EDIFFG">      0.00000010</i>
   <i type="int" name="NFREE">     0</i>
   <i name="POTIM">      0.50000000</i>
   <i name="SMASS">     -3.00000000</i>
   <i name="SCALEE">      1.00000000</i>
  </separator>
  <separator name="ionic md" >
   <i name="TEBEG">      0.00010000</i>
   <i name="TEEND">      0.00010000</i>
   <i type="int" name="NBLOCK">     1</i>
   <i type="int" name="KBLOCK">     1</i>
   <i type="int" name="NPACO">   256</i>
   <i name="APACO">     16.00000000</i>
  </separator>
  <separator name="symmetry" >
   <i type="int" name="ISYM">     2</i>
   <i name="SYMPREC">      0.00001000</i>
  </separator>
  <separator name="dos" >
   <i type="logical" name="LORBIT"> F  </i>
   <v name="RWIGS">     -1.00000000</v>
   <i type="int" name="NEDOS">   301</i>
   <i name="EMIN">     10.00000000</i>
   <i name="EMAX">    -10.00000000</i>
   <i name="EFERMI">      0.00000000</i>
  </separator>
  <separator name="writing" >
   <i type="int" name="NWRITE">     2</i>
   <i type="logical" name="LWAVE"> F  </i>
   <i type="logical" name="LCHARG"> F  </i>
   <i type="logical" name="LPARD"> F  </i>
   <i type="logical" name="LVTOT"> F  </i>
   <i type="logical" name="LVHAR"> F  </i>
   <i type="logical" name="LELF"> F  </i>
   <i type="logical" name="LOPTICS"> F  </i>
   <v name="STM">      0.00000000      0.00000000      0.00000000      0.00000000      0.00000000      0.00000000      0.00000000</v>
  </separator>
  <separator name="performance" >
   <i type="int" name="NPAR">     4</i>
   <i type="int" name="NSIM">     4</i>
   <i type="int" name="NBLK">    -1</i>
   <i type="logical" name="LPLANE"> T  </i>
   <i type="logical" name="LSCALAPACK"> T  </i>
   <i type="logical" name="LSCAAWARE"> F  </i>
   <i type="logical" name="LSCALU"> F  </i>
   <i type="logical" name="LASYNC"> F  </i>
   <i type="logical" name="LORBITALREAL"> F  </i>
  </separator>
  <separator name="miscellaneous" >
   <i type="int" name="IDIOT">     3</i>
   <i type="logical" name="LMUSIC"> F  </i>
   <v name="POMASS">     28.08500000</v>
   <v name="DARWINR">      0.00000000</v>
   <v name="DARWINV">      1.00000000</v>
   <i type="logical" name="LCORR"> T  </i>
  </separator>
  <i type="logical" name="GGA_COMPAT"> T  </i>
  <i type="logical" name="LBERRY"> F  </i>
  <i type="int" name="ICORELEVEL">     0</i>
  <i type="logical" name="LDAU"> F  </i>
  <i type="int" name="I_CONSTRAINED_M">     0</i>
  <separator name="electronic exchange-correlation" >
   <i type="string" name="GGA">--</i>
   <i type="int" name="VOSKOWN">     0</i>
   <i type="logical" name="LHFCALC"> F  </i>
   <i type="string" name="PRECFOCK"></i>
   <i type="logical" name="LSYMGRAD"> F  </i>
   <i type="logical" name="LHFONE"> F  </i>
   <i type="logical" name="LRHFCALC"> F  </i>
   <i type="logical" name="LTHOMAS"> F  </i>
   <i type="logical" name="LMODELHF"> F  </i>
   <i name="ENCUT4O">     -1.00000000</i>
   <i type="int" name="EXXOEP">     0</i>
   <i type="int" name="FOURORBIT">     0</i>
   <i name="AEXX">      0.00000000</i>
   <i name="HFALPHA">      0.00000000</i>
   <i name="MCALPHA">      0.00000000</i>
   <i name="ALDAX">      1.00000000</i>
   <i name="AGGAX">      1.00000000</i>
   <i name="ALDAC">      1.00000000</i>
   <i name="AGGAC">      1.00000000</i>
   <i type="int" name="NKREDX">     1</i>
   <i type="int" name="NKREDY">     1</i>
   <i type="int" name="NKREDZ">     1</i>
   <i type="logical" name="SHIFTRED"> F  </i>
   <i type="logical" name="ODDONLY"> F  </i>
   <i type="logical" name="EVENONLY"> F  </i>
   <i type="int" name="LMAXFOCK">     0</i>
   <i type="int" name="NMAXFOCKAE">     0</i>
   <i type="logical" name="LFOCKAEDFT"> F  </i>
   <i name="HFSCREEN">      0.00000000</i>
   <i name="HFSCREENC">      0.00000000</i>
   <i type="int" name="NBANDSGWLOW">     0</i>
  </separator>
  <separator name="vdW DFT" >
   <i type="logical" name="LUSE_VDW"> F  </i>
   <i name="Zab_VDW">     -0.84910000</i>
   <i name="PARAM1">      0.12340000</i>
   <i name="PARAM2">      1.00000000</i>
   <i name="PARAM3">      0.00000000</i>
  </separator>
  <separator name="model GW" >
   <i type="int" name="MODEL_GW">     0</i>
   <i name="MODEL_EPS0">     12.24990743</i>
   <i name="MODEL_ALPHA">      1.00000000</i>
  </separator>
  <separator name="linear response parameters" >
   <i type="logical" name="LEPSILON"> F  </i>
   <i type="logical" name="LRPA"> F  </i>
   <i type="logical" name="LNABLA"> F  </i>
   <i type="logical" name="LVEL"> F  </i>
   <i type="int" name="KINTER">     0</i>
   <i name="CSHIFT">      0.10000000</i>
   <i name="OMEGAMAX">     -1.00000000</i>
   <i name="DEG_THRESHOLD">      0.00200000</i>
  </separator>
  <separator name="orbital magnetization" >
   <i type="logical" name="NUCIND"> F  </i>
   <v name="MAGPOS">      0.00000000      0.00000000      0.00000000</v>
   <i type="logical" name="LNICSALL"> T  </i>
   <i type="logical" name="ORBITALMAG"> F  </i>
   <i type="logical" name="LMAGBLOCH"> F  </i>
   <i type="logical" name="LCHIMAG"> F  </i>
   <i type="logical" name="LGAUGE"> T  </i>
   <i type="int" name="MAGATOM">     0</i>
   <v name="MAGDIPOL">      0.00000000      0.00000000      0.00000000</v>
   <v name="AVECCONST">      0.00000000      0.00000000      0.00000000</v>
  </separator>
  <separator name="response functions" >
   <i type="logical" name="LADDER"> F  </i>
   <i type="logical" name="LFXC"> F  </i>
   <i type="logical" name="LHARTREE"> T  </i>
   <i type="int" name="IBSE">     0</i>
   <v type="int" name="KPOINT">    -1     0     0     0</v>
   <i type="logical" name="LTCTE"> F  </i>
   <i type="logical" name="LTETE"> F  </i>
   <i type="logical" name="LTRIPLET"> F  </i>
   <i type="logical" name="LFXCEPS"> F  </i>
   <i type="logical" name="LFXHEG"> F  </i>
   <i type="int" name="NATURALO">     0</i>
   <i type="logical" name="L2ORDER"> F  </i>
   <i type="logical" name="LUSEW"> F  </i>
   <i name="ENCUTGW">     -2.00000000</i>
   <i name="ENCUTGWSOFT">     -2.00000000</i>
   <i name="ENCUTLF">     -1.00000000</i>
   <i type="int" name="LMAXMP2">    -1</i>
   <i name="SCISSOR">      0.00000000</i>
   <i type="int" name="NOMEGA">     0</i>
   <i type="int" name="NOMEGAR">     0</i>
   <i type="int" name="NBANDSGW">    -1</i>
   <i type="int" name="NBANDSO">    -1</i>
   <i type="int" name="NBANDSV">    -1</i>
   <i type="int" name="NELM">     1</i>
   <i type="int" name="NELMHF">     1</i>
   <i type="int" name="DIM">     3</i>
   <i type="int" name="ANTIRES">     0</i>
   <i name="OMEGAMAX">    -30.00000000</i>
   <i name="OMEGAMIN">    -30.00000000</i>
   <i name="OMEGATL">   -200.00000000</i>
   <i type="int" name="OMEGAGRID">     0</i>
   <i name="CSHIFT">     -0.10000000</i>
   <i type="logical" name="SELFENERGY"> F  </i>
   <i type="logical" name="LSPECTRAL"> F  </i>
   <i type="logical" name="LSPECTRALGW"> F  </i>
   <i type="logical" name="LSINGLES"> F  </i>
   <i type="logical" name="LFERMIGW"> F  </i>
   <i type="logical" name="ODDONLYGW"> F  </i>
   <i type="logical" name="EVENONLYGW"> F  </i>
   <i type="int" name="NKREDLFX">     1</i>
   <i type="int" name="NKREDLFY">     1</i>
   <i type="int" name="NKREDLFZ">     1</i>
   <i type="int" name="MAXMEM">  1800</i>
   <i type="int" name="TELESCOPE">     0</i>
   <i type="int" name="TAUPAR">     1</i>
   <i type="int" name="OMEGAPAR">    -1</i>
   <i name="LAMBDA">      1.00000000</i>
  </separator>
  <separator name="External order field" >
   <i name="OFIELD_KAPPA">      0.00000000</i>
   <v name="OFIELD_K">      0.00000000      0.00000000      0.00000000</v>
   <i name="OFIELD_Q6_NEAR">      0.00000000</i>
   <i name="OFIELD_Q6_FAR">      0.00000000</i>
   <i name="OFIELD_A">      0.00000000</i>
  </separator>
 </parameters>
 <atominfo>
  <atoms>      64 </atoms>
  <types>       1 </types>
  <array name="atoms" >
   <dimension dim="1">ion</dimension>
   <field type="string">element</field>
   <field type="int">atomtype</field>
   <set>
    <rc><c>Si</c><c>   1</c></rc>
    <rc><c>Si</c><c>   1</c></rc>
    <rc><c>Si</c><c>   1</c></rc>
    <rc><c>Si</c><c>   1</c></rc>
    <rc><c>Si</c><c>   1</c></rc>
    <rc><c>Si</c><c>   1</c></rc>
    <rc><c>Si</c><c>   1</c></rc>
    <rc><c>Si</c><c>   1</c></rc>
    <rc><c>Si</c><c>   1</c></rc>
    <rc><c>Si</c><c>   1</c></rc>
    <rc><c>Si</c><c>   1</c></rc>
    <rc><c>Si</c><c>   1</c></rc>
    <rc><c>Si</c><c>   1</c></rc>
    <rc><c>Si</c><c>   1</c></rc>
    <rc><c>Si</c><c>   1</c></rc>
    <rc><c>Si</c><c>   1</c></rc>
    <rc><c>Si</c><c>   1</c></rc>
    <rc><c>Si</c><c>   1</c></rc>
    <rc><c>Si</c><c>   1</c></rc>
    <rc><c>Si</c><c>   1</c></rc>
    <rc><c>Si</c><c>   1</c></rc>
    <rc><c>Si</c><c>   1</c></rc>
    <rc><c>Si</c><c>   1</c></rc>
    <rc><c>Si</c><c>   1</c></rc>
    <rc><c>Si</c><c>   1</c></rc>
    <rc><c>Si</c><c>   1</c></rc>
    <rc><c>Si</c><c>   1</c></rc>
    <rc><c>Si</c><c>   1</c></rc>
    <rc><c>Si</c><c>   1</c></rc>
    <rc><c>Si</c><c>   1</c></rc>
    <rc><c>Si</c><c>   1</c></rc>
    <rc><c>Si</c><c>   1</c></rc>
    <rc><c>Si</c><c>   1</c></rc>
    <rc><c>Si</c><c>   1</c></rc>
    <rc><c>Si</c><c>   1</c></rc>
    <rc><c>Si</c><c>   1</c></rc>
    <rc><c>Si</c><c>   1</c></rc>
    <rc><c>Si</c><c>   1</c></rc>
    <rc><c>Si</c><c>   1</c></rc>
    <rc><c>Si</c><c>   1</c></rc>
    <rc><c>Si</c><c>   1</c></rc>
    <rc><c>Si</c><c>   1</c></rc>
    <rc><c>Si</c><c>   1</c></rc>
    <rc><c>Si</c><c>   1</c></rc>
    <rc><c>Si</c><c>   1</c></rc>
    <rc><c>Si</c><c>   1</c></rc>
    <rc><c>Si</c><c>   1</c></rc>
    <rc><c>Si</c><c>   1</c></rc>
    <rc><c>Si</c><c>   1</c></rc>
    <rc><c>Si</c><c>   1</c></rc>
    <rc><c>Si</c><c>   1</c></rc>
    <rc><c>Si</c><c>   1</c></rc>
    <rc><c>Si</c><c>   1</c></rc>
    <rc><c>Si</c><c>   1</c></rc>
    <rc><c>Si</c><c>   1</c></rc>
    <rc><c>Si</c><c>   1</c></rc>
    <rc><c>Si</c><c>   1</c></rc>
    <rc><c>Si</c><c>   1</c></rc>
    <rc><c>Si</c><c>   1</c></rc>
    <rc><c>Si</c><c>   1</c></rc>
    <rc><c>Si</c><c>   1</c></rc>
    <rc><c>Si</c><c>   1</c></rc>
    <rc><c>Si</c><c>   1</c></rc>
    <rc><c>Si</c><c>   1</c></rc>
   </set>
  </array>
  <array name="atomtypes" >
   <dimension dim="1">type</dimension>
   <field type="int">atomspertype</field>
   <field type="string">element</field>
   <field>mass</field>
   <field>valence</field>
   <field type="string">pseudopotential</field>
   <set>
    <rc><c>  64</c><c>Si</c><c>     28.08500000</c><c>      4.00000000</c><c>  PAW_PBE Si 05Jan2001                  </c></rc>
   </set>
  </array>
 </atominfo>
 <structure name="initialpos" >
  <crystal>
   <varray name="basis" >
    <v>      10.93252578       0.00000000       0.00000000 </v>
    <v>       0.00000000      10.93252578       0.00000000 </v>
    <v>       0.00000000       0.00000000      10.93252578 </v>
   </varray>
   <i name="volume">   1306.65679237 </i>
   <varray name="rec_basis" >
    <v>       0.09147017       0.00000000       0.00000000 </v>
    <v>       0.00000000       0.09147017       0.00000000 </v>
    <v>       0.00000000       0.00000000       0.09147017 </v>
   </varray>
  </crystal>
  <varray name="positions" >
   <v>       0.44024411       0.43750000       0.43750000 </v>
   <v>       0.93750000       0.43750000       0.43750000 </v>
   <v>       0.43750000       0.93750000       0.43750000 </v>
   <v>       0.93750000       0.93750000       0.43750000 </v>
   <v>       0.43750000       0.43750000       0.93750000 </v>
   <v>       0.93750000       0.43750000       0.93750000 </v>
   <v>       0.43750000       0.93750000       0.93750000 </v>
   <v>       0.93750000       0.93750000       0.93750000 </v>
   <v>       0.43750000       0.18750000       0.18750000 </v>
   <v>       0.93750000       0.18750000       0.18750000 </v>
   <v>       0.43750000       0.68750000       0.18750000 </v>
   <v>       0.93750000       0.68750000       0.18750000 </v>
   <v>       0.43750000       0.18750000       0.68750000 </v>
   <v>       0.93750000       0.18750000       0.68750000 </v>
   <v>       0.43750000       0.68750000       0.68750000 </v>
   <v>       0.93750000       0.68750000       0.68750000 </v>
   <v>       0.18750000       0.43750000       0.18750000 </v>
   <v>       0.68750000       0.43750000       0.18750000 </v>
   <v>       0.18750000       0.93750000       0.18750000 </v>
   <v>       0.68750000       0.93750000       0.18750000 </v>
   <v>       0.18750000       0.43750000       0.68750000 </v>
   <v>       0.68750000       0.43750000       0.68750000 </v>
   <v>       0.18750000       0.93750000       0.68750000 </v>
   <v>       0.68750000       0.93750000       0.68750000 </v>
   <v>       0.18750000       0.18750000       0.43750000 </v>
   <v>       0.68750000       0.18750000       0.43750000 </v>
   <v>       0.18750000       0.68750000       0.43750000 </v>
   <v>       0.68750000       0.68750000       0.43750000 </v>
   <v>       0.18750000       0.18750000       0.93750000 </v>
   <v>       0.68750000       0.18750000       0.93750000 </v>
   <v>       0.18750000       0.68750000       0.93750000 </v>
   <v>       0.68750000       0.68750000       0.93750000 </v>
   <v>       0.06250000       0.06250000       0.06250000 </v>
   <v>       0.56250000       0.06250000       0.06250000 </v>
   <v>       0.06250000       0.56250000       0.06250000 </v>
   <v>       0.56250000       0.56250000       0.06250000 </v>
   <v>       0.06250000       0.06250000       0.56250000 </v>
   <v>       0.56250000       0.06250000       0.56250000 </v>
   <v>       0.06250000       0.56250000       0.56250000 </v>
   <v>       0.56250000       0.56250000       0.56250000 </v>
   <v>       0.06250000       0.31250000       0.31250000 </v>
   <v>       0.56250000       0.31250000       0.31250000 </v>
   <v>       0.06250000       0.81250000       0.31250000 </v>
   <v>       0.56250000       0.81250000       0.31250000 </v>
   <v>       0.06250000       0.31250000       0.81250000 </v>
   <v>       0.56250000       0.31250000       0.81250000 </v>
   <v>       0.06250000       0.81250000       0.81250000 </v>
   <v>       0.56250000       0.81250000       0.81250000 </v>
   <v>       0.31250000       0.06250000       0.31250000 </v>
   <v>       0.81250000       0.06250000       0.31250000 </v>
   <v>       0.31250000       0.56250000       0.31250000 </v>
   <v>       0.81250000       0.56250000       0.31250000 </v>
   <v>       0.31250000       0.06250000       0.81250000 </v>
   <v>       0.80975589       0.06250000       0.81250000 </v>
   <v>       0.31250000       0.56250000       0.81250000 </v>
   <v>       0.81250000       0.56250000       0.81250000 </v>
   <v>       0.31250000       0.31250000       0.06250000 </v>
   <v>       0.81250000       0.31250000       0.06250000 </v>
   <v>       0.31250000       0.81250000       0.06250000 </v>
   <v>       0.81250000       0.81250000       0.06250000 </v>
   <v>       0.31250000       0.31250000       0.56250000 </v>
   <v>       0.81250000       0.31250000       0.56250000 </v>
   <v>       0.31250000       0.81250000       0.56250000 </v>
   <v>       0.81250000       0.81250000       0.56250000 </v>
  </varray>
 </structure>
 <calculation>
  <scstep>
   <time name="dav">    3.15    3.15</time>
   <time name="total">    3.33    3.33</time>
   <energy>
    <i name="alphaZ">    105.52440745 </i>
    <i name="ewald">  -7265.47058273 </i>
    <i name="hartreedc">   -361.71306345 </i>
    <i name="XCdc">   -597.75714165 </i>
    <i name="pawpsdc">   5639.92317535 </i>
    <i name="pawaedc">  -4513.95313856 </i>
    <i name="eentropy">     -0.00806129 </i>
    <i name="bandstr">    858.77744293 </i>
    <i name="atom">   6596.14994790 </i>
    <i name="e_fr_energy">    461.47298596 </i>
    <i name="e_wo_entrp">    461.48104725 </i>
    <i name="e_0_energy">    461.47701661 </i>
   </energy>
  </scstep>
  <scstep>
   <time name="dav">    3.57    3.57</time>
   <time name="total">    3.57    3.58</time>
   <energy>
    <i name="e_fr_energy">   -298.28835043 </i>
    <i name="e_wo_entrp">   -298.28835043 </i>
    <i name="e_0_energy">   -298.28835043 </i>
   </energy>
  </scstep>
  <scstep>
   <time name="dav">    3.65    3.66</time>
   <time name="total">    3.66    3.66</time>
   <energy>
    <i name="e_fr_energy">   -350.94702337 </i>
    <i name="e_wo_entrp">   -350.94702337 </i>
    <i name="e_0_energy">   -350.94702337 </i>
   </energy>
  </scstep>
  <scstep>
   <time name="dav">    3.63    3.63</time>
   <time name="total">    3.63    3.69</time>
   <energy>
    <i name="e_fr_energy">   -352.26488071 </i>
    <i name="e_wo_entrp">   -352.26488071 </i>
    <i name="e_0_energy">   -352.26488071 </i>
   </energy>
  </scstep>
  <scstep>
   <time name="dav">    3.63    3.64</time>
   <time name="total">    3.85    3.86</time>
   <energy>
    <i name="e_fr_energy">   -352.31292991 </i>
    <i name="e_wo_entrp">   -352.31292991 </i>
    <i name="e_0_energy">   -352.31292991 </i>
   </energy>
  </scstep>
  <scstep>
   <time name="dav">    3.51    3.51</time>
   <time name="total">    3.89    3.90</time>
   <energy>
    <i name="e_fr_energy">   -348.58475890 </i>
    <i name="e_wo_entrp">   -348.58475890 </i>
    <i name="e_0_energy">   -348.58475890 </i>
   </energy>
  </scstep>
  <scstep>
   <time name="dav">    3.43    3.43</time>
   <time name="total">    3.81    3.82</time>
   <energy>
    <i name="e_fr_energy">   -346.87200434 </i>
    <i name="e_wo_entrp">   -346.87200434 </i>
    <i name="e_0_energy">   -346.87200434 </i>
   </energy>
  </scstep>
  <scstep>
   <time name="dav">    3.58    3.58</time>
   <time name="total">    3.96    3.97</time>
   <energy>
    <i name="e_fr_energy">   -346.89821613 </i>
    <i name="e_wo_entrp">   -346.89821613 </i>
    <i name="e_0_energy">   -346.89821613 </i>
   </energy>
  </scstep>
  <scstep>
   <time name="dav">    3.70    3.70</time>
   <time name="total">    4.09    4.10</time>
   <energy>
    <i name="e_fr_energy">   -346.90488297 </i>
    <i name="e_wo_entrp">   -346.90488297 </i>
    <i name="e_0_energy">   -346.90488297 </i>
   </energy>
  </scstep>
  <scstep>
   <time name="dav">    3.41    3.41</time>
   <time name="total">    3.79    3.81</time>
   <energy>
    <i name="e_fr_energy">   -346.90693658 </i>
    <i name="e_wo_entrp">   -346.90693658 </i>
    <i name="e_0_energy">   -346.90693658 </i>
   </energy>
  </scstep>
  <scstep>
   <time name="dav">    3.58    3.58</time>
   <time name="total">    3.96    3.97</time>
   <energy>
    <i name="e_fr_energy">   -346.90691392 </i>
    <i name="e_wo_entrp">   -346.90691392 </i>
    <i name="e_0_energy">   -346.90691392 </i>
   </energy>
  </scstep>
  <scstep>
   <time name="dav">    3.60    3.60</time>
   <time name="total">    3.98    3.99</time>
   <energy>
    <i name="e_fr_energy">   -346.90692889 </i>
    <i name="e_wo_entrp">   -346.90692889 </i>
    <i name="e_0_energy">   -346.90692889 </i>
   </energy>
  </scstep>
  <scstep>
   <time name="dav">    3.54    3.54</time>
   <time name="total">    3.92    3.93</time>
   <energy>
    <i name="e_fr_energy">   -346.90692917 </i>
    <i name="e_wo_entrp">   -346.90692917 </i>
    <i name="e_0_energy">   -346.90692917 </i>
   </energy>
  </scstep>
  <scstep>
   <time name="dav">    3.60    3.60</time>
   <time name="total">    3.99    4.00</time>
   <energy>
    <i name="e_fr_energy">   -346.90692972 </i>
    <i name="e_wo_entrp">   -346.90692972 </i>
    <i name="e_0_energy">   -346.90692972 </i>
   </energy>
  </scstep>
  <scstep>
   <time name="dav">    3.10    3.11</time>
   <time name="total">    3.49    3.50</time>
   <energy>
    <i name="e_fr_energy">   -346.90692946 </i>
    <i name="e_wo_entrp">   -346.90692946 </i>
    <i name="e_0_energy">   -346.90692946 </i>
   </energy>
  </scstep>
  <scstep>
   <time name="dav">    2.46    2.46</time>
   <time name="total">    2.84    2.86</time>
   <energy>
    <i name="e_fr_energy">   -346.90692954 </i>
    <i name="e_wo_entrp">   -346.90692954 </i>
    <i name="e_0_energy">   -346.90692954 </i>
   </energy>
  </scstep>
  <scstep>
   <time name="dav">    2.43    2.43</time>
   <time name="total">    2.60    2.61</time>
   <energy>
    <i name="alphaZ">    105.52440745 </i>
    <i name="ewald">  -7265.47058273 </i>
    <i name="hartreedc">   -485.14374050 </i>
    <i name="XCdc">   -577.61231006 </i>
    <i name="pawpsdc">  27883.39725167 </i>
    <i name="pawaedc"> -26764.11516147 </i>
    <i name="eentropy">      0.00000000 </i>
    <i name="bandstr">    160.36325822 </i>
    <i name="atom">   6596.14994790 </i>
    <i name="e_fr_energy">   -346.90692953 </i>
    <i name="e_wo_entrp">   -346.90692953 </i>
    <i name="e_0_energy">   -346.90692953 </i>
   </energy>
  </scstep>
  <structure>
   <crystal>
    <varray name="basis" >
     <v>      10.93252578       0.00000000       0.00000000 </v>
     <v>       0.00000000      10.93252578       0.00000000 </v>
     <v>       0.00000000       0.00000000      10.93252578 </v>
    </varray>
    <i name="volume">   1306.65679237 </i>
    <varray name="rec_basis" >
     <v>       0.09147017       0.00000000       0.00000000 </v>
     <v>       0.00000000       0.09147017       0.00000000 </v>
     <v>       0.00000000       0.00000000       0.09147017 </v>
    </varray>
   </crystal>
   <varray name="positions" >
    <v>       0.44024411       0.43750000       0.43750000 </v>
    <v>       0.93750000       0.43750000       0.43750000 </v>
    <v>       0.43750000       0.93750000       0.43750000 </v>
    <v>       0.93750000       0.93750000       0.43750000 </v>
    <v>       0.43750000       0.43750000       0.93750000 </v>
    <v>       0.93750000       0.43750000       0.93750000 </v>
    <v>       0.43750000       0.93750000       0.93750000 </v>
    <v>       0.93750000       0.93750000       0.93750000 </v>
    <v>       0.43750000       0.18750000       0.18750000 </v>
    <v>       0.93750000       0.18750000       0.18750000 </v>
    <v>       0.43750000       0.68750000       0.18750000 </v>
    <v>       0.93750000       0.68750000       0.18750000 </v>
    <v>       0.43750000       0.18750000       0.68750000 </v>
    <v>       0.93750000       0.18750000       0.68750000 </v>
    <v>       0.43750000       0.68750000       0.68750000 </v>
    <v>       0.93750000       0.68750000       0.68750000 </v>
    <v>       0.18750000       0.43750000       0.18750000 </v>
    <v>       0.68750000       0.43750000       0.18750000 </v>
    <v>       0.18750000       0.93750000       0.18750000 </v>
    <v>       0.68750000       0.93750000       0.18750000 </v>
    <v>       0.18750000       0.43750000       0.68750000 </v>
    <v>       0.68750000       0.43750000       0.68750000 </v>
    <v>       0.18750000       0.93750000       0.68750000 </v>
    <v>       0.68750000       0.93750000       0.68750000 </v>
    <v>       0.18750000       0.18750000       0.43750000 </v>
    <v>       0.68750000       0.18750000       0.43750000 </v>
    <v>       0.18750000       0.68750000       0.43750000 </v>
    <v>       0.68750000       0.68750000       0.43750000 </v>
    <v>       0.18750000       0.18750000       0.93750000 </v>
    <v>       0.68750000       0.18750000       0.93750000 </v>
    <v>       0.18750000       0.68750000       0.93750000 </v>
    <v>       0.68750000       0.68750000       0.93750000 </v>
    <v>       0.06250000       0.06250000       0.06250000 </v>
    <v>       0.56250000       0.06250000       0.06250000 </v>
    <v>       0.06250000       0.56250000       0.06250000 </v>
    <v>       0.56250000       0.56250000       0.06250000 </v>
    <v>       0.06250000       0.06250000       0.56250000 </v>
    <v>       0.56250000       0.06250000       0.56250000 </v>
    <v>       0.06250000       0.56250000       0.56250000 </v>
    <v>       0.56250000       0.56250000       0.56250000 </v>
    <v>       0.06250000       0.31250000       0.31250000 </v>
    <v>       0.56250000       0.31250000       0.31250000 </v>
    <v>       0.06250000       0.81250000       0.31250000 </v>
    <v>       0.56250000       0.81250000       0.31250000 </v>
    <v>       0.06250000       0.31250000       0.81250000 </v>
    <v>       0.56250000       0.31250000       0.81250000 </v>
    <v>       0.06250000       0.81250000       0.81250000 </v>
    <v>       0.56250000       0.81250000       0.81250000 </v>
    <v>       0.31250000       0.06250000       0.31250000 </v>
    <v>       0.81250000       0.06250000       0.31250000 </v>
    <v>       0.31250000       0.56250000       0.31250000 </v>
    <v>       0.81250000       0.56250000       0.31250000 </v>
    <v>       0.31250000       0.06250000       0.81250000 </v>
    <v>       0.80975589       0.06250000       0.81250000 </v>
    <v>       0.31250000       0.56250000       0.81250000 </v>
    <v>       0.81250000       0.56250000       0.81250000 </v>
    <v>       0.31250000       0.31250000       0.06250000 </v>
    <v>       0.81250000       0.31250000       0.06250000 </v>
    <v>       0.31250000       0.81250000       0.06250000 </v>
    <v>       0.81250000       0.81250000       0.06250000 </v>
    <v>       0.31250000       0.31250000       0.56250000 </v>
    <v>       0.81250000       0.31250000       0.56250000 </v>
    <v>       0.31250000       0.81250000       0.56250000 </v>
    <v>       0.81250000       0.81250000       0.56250000 </v>
   </varray>
  </structure>
  <varray name="forces" >
   <v>      -0.38660218       0.00073605      -0.00073605 </v>
   <v>      -0.00558618       0.00067468      -0.00067468 </v>
   <v>       0.00065645       0.00070810      -0.00063811 </v>
   <v>       0.00125909       0.00124696      -0.00089079 </v>
   <v>       0.00065645       0.00063811      -0.00070810 </v>
   <v>       0.00125909       0.00089079      -0.00124696 </v>
   <v>      -0.01127326       0.00090400      -0.00090400 </v>
   <v>      -0.09249961       0.06095944      -0.06095944 </v>
   <v>      -0.01354014       0.00207186       0.00341701 </v>
   <v>       0.00140822      -0.00101910       0.00111653 </v>
   <v>      -0.01224033       0.00192142      -0.00192142 </v>
   <v>      -0.00613965      -0.00044110       0.00044110 </v>
   <v>      -0.01249465      -0.00357134       0.00357134 </v>
   <v>      -0.09307391      -0.06119509       0.06119509 </v>
   <v>      -0.01354014      -0.00341701      -0.00207186 </v>
   <v>       0.00140822      -0.00111653       0.00101910 </v>
   <v>       0.00618256      -0.00342808       0.00480436 </v>
   <v>      -0.00041672      -0.00346060      -0.00636730 </v>
   <v>       0.00039889      -0.00088380      -0.00246219 </v>
   <v>       0.00249704      -0.00144152       0.00092264 </v>
   <v>       0.00503260       0.00207303      -0.00621751 </v>
   <v>       0.00727555       0.00184354       0.00447983 </v>
   <v>       0.00129349      -0.00067961       0.00095116 </v>
   <v>      -0.09478127      -0.06588217      -0.06795378 </v>
   <v>       0.00503260       0.00621751      -0.00207303 </v>
   <v>       0.00727555      -0.00447983      -0.00184354 </v>
   <v>       0.00618256      -0.00480436       0.00342808 </v>
   <v>      -0.00041672       0.00636730       0.00346060 </v>
   <v>       0.00129349      -0.00095116       0.00067961 </v>
   <v>      -0.09478127       0.06795378       0.06588217 </v>
   <v>       0.00039889       0.00246219       0.00088380 </v>
   <v>       0.00249704      -0.00092264       0.00144152 </v>
   <v>      -0.00618256       0.00342808      -0.00480436 </v>
   <v>       0.00041672       0.00346060       0.00636730 </v>
   <v>      -0.00039889       0.00088380       0.00246219 </v>
   <v>      -0.00249704       0.00144152      -0.00092264 </v>
   <v>      -0.00503260      -0.00207303       0.00621751 </v>
   <v>      -0.00727555      -0.00184354      -0.00447983 </v>
   <v>      -0.00129349       0.00067961      -0.00095116 </v>
   <v>       0.09478127       0.06588217       0.06795378 </v>
   <v>      -0.00129349       0.00095116      -0.00067961 </v>
   <v>       0.09478127      -0.06795378      -0.06588217 </v>
   <v>      -0.00039889      -0.00246219      -0.00088380 </v>
   <v>      -0.00249704       0.00092264      -0.00144152 </v>
   <v>      -0.00503260      -0.00621751       0.00207303 </v>
   <v>      -0.00727555       0.00447983       0.00184354 </v>
   <v>      -0.00618256       0.00480436      -0.00342808 </v>
   <v>       0.00041672      -0.00636730      -0.00346060 </v>
   <v>      -0.00125909      -0.00089079       0.00124696 </v>
   <v>      -0.00065645      -0.00063811       0.00070810 </v>
   <v>       0.09249961      -0.06095944       0.06095944 </v>
   <v>       0.01127326      -0.00090400       0.00090400 </v>
   <v>       0.00558618      -0.00067468       0.00067468 </v>
   <v>       0.38660218      -0.00073605       0.00073605 </v>
   <v>      -0.00125909      -0.00124696       0.00089079 </v>
   <v>      -0.00065645      -0.00070810       0.00063811 </v>
   <v>      -0.00140822       0.00101910      -0.00111653 </v>
   <v>       0.01354014      -0.00207186      -0.00341701 </v>
   <v>       0.00613965       0.00044110      -0.00044110 </v>
   <v>       0.01224033      -0.00192142       0.00192142 </v>
   <v>       0.09307391       0.06119509      -0.06119509 </v>
   <v>       0.01249465       0.00357134      -0.00357134 </v>
   <v>      -0.00140822       0.00111653      -0.00101910 </v>
   <v>       0.01354014       0.00341701       0.00207186 </v>
  </varray>
  <varray name="stress" >
   <v>      -0.01757073       0.00002829      -0.00002829 </v>
   <v>       0.00002828       0.02096716       0.66982183 </v>
   <v>      -0.00002828       0.66982183       0.02096716 </v>
  </varray>
  <energy>
   <i name="e_fr_energy">   -346.90692953 </i>
   <i name="e_wo_entrp">   -346.90692953 </i>
   <i name="e_0_energy">      0.00000000 </i>
  </energy>
  <time name="totalsc">   70.24   70.48</time>
  <eigenvalues>
   <array>
    <dimension dim="1">band</dimension>
    <dimension dim="2">kpoint</dimension>
    <dimension dim="3">spin</dimension>
    <field>eigene</field>
    <field>occ</field>
    <set>
     <set comment="spin 1">
      <set comment="kpoint 1">
       <r>   -5.9931    1.0000 </r>
       <r>   -5.4673    1.0000 </r>
       <r>   -5.4650    1.0000 </r>
       <r>   -5.4624    1.0000 </r>
       <r>   -4.9681    1.0000 </r>
       <r>   -4.9655    1.0000 </r>
       <r>   -4.9629    1.0000 </r>
       <r>   -4.5313    1.0000 </r>
       <r>   -4.4348    1.0000 </r>
       <r>   -4.4319    1.0000 </r>
       <r>   -4.4296    1.0000 </r>
       <r>   -4.0257    1.0000 </r>
       <r>   -4.0191    1.0000 </r>
       <r>   -4.0166    1.0000 </r>
       <r>   -4.0162    1.0000 </r>
       <r>   -4.0121    1.0000 </r>
       <r>   -4.0119    1.0000 </r>
       <r>   -3.8267    1.0000 </r>
       <r>   -3.8261    1.0000 </r>
       <r>   -3.8219    1.0000 </r>
       <r>   -3.3306    1.0000 </r>
       <r>   -3.3266    1.0000 </r>
       <r>   -3.3225    1.0000 </r>
       <r>   -2.9627    1.0000 </r>
       <r>   -2.9603    1.0000 </r>
       <r>   -2.9557    1.0000 </r>
       <r>   -2.7995    1.0000 </r>
       <r>   -2.7926    1.0000 </r>
       <r>   -2.7911    1.0000 </r>
       <r>   -2.7910    1.0000 </r>
       <r>   -2.7865    1.0000 </r>
       <r>   -2.7860    1.0000 </r>
       <r>   -1.2590    1.0000 </r>
       <r>   -1.2499    1.0000 </r>
       <r>   -1.2487    1.0000 </r>
       <r>   -1.2481    1.0000 </r>
       <r>   -1.2435    1.0000 </r>
       <r>   -1.2415    1.0000 </r>
       <r>   -1.1544    1.0000 </r>
       <r>   -1.1494    1.0000 </r>
       <r>   -1.1467    1.0000 </r>
       <r>   -1.0372    1.0000 </r>
       <r>   -1.0281    1.0000 </r>
       <r>   -1.0276    1.0000 </r>
       <r>   -0.9583    1.0000 </r>
       <r>   -0.9484    1.0000 </r>
       <r>   -0.9458    1.0000 </r>
       <r>   -0.2481    1.0000 </r>
       <r>   -0.1686    1.0000 </r>
       <r>   -0.1610    1.0000 </r>
       <r>   -0.1605    1.0000 </r>
       <r>   -0.1596    1.0000 </r>
       <r>   -0.1523    1.0000 </r>
       <r>   -0.1502    1.0000 </r>
       <r>    0.7056    1.0000 </r>
       <r>    0.7146    1.0000 </r>
       <r>    0.7157    1.0000 </r>
       <r>    1.0417    1.0000 </r>
       <r>    1.0494    1.0000 </r>
       <r>    1.0503    1.0000 </r>
       <r>    1.6534    1.0000 </r>
       <r>    1.6542    1.0000 </r>
       <r>    1.6562    1.0000 </r>
       <r>    1.6570    1.0000 </r>
       <r>    1.6596    1.0000 </r>
       <r>    1.6622    1.0000 </r>
       <r>    1.7133    1.0000 </r>
       <r>    1.7182    1.0000 </r>
       <r>    1.7196    1.0000 </r>
       <r>    2.2632    1.0000 </r>
       <r>    2.2667    1.0000 </r>
       <r>    2.2678    1.0000 </r>
       <r>    2.3664    1.0000 </r>
       <r>    2.3682    1.0000 </r>
       <r>    2.3708    1.0000 </r>
       <r>    2.3712    1.0000 </r>
       <r>    2.3776    1.0000 </r>
       <r>    2.3790    1.0000 </r>
       <r>    2.4232    1.0000 </r>
       <r>    2.4272    1.0000 </r>
       <r>    2.4304    1.0000 </r>
       <r>    2.7275    1.0000 </r>
       <r>    2.7339    1.0000 </r>
       <r>    2.7343    1.0000 </r>
       <r>    2.7353    1.0000 </r>
       <r>    2.7383    1.0000 </r>
       <r>    2.7394    1.0000 </r>
       <r>    2.9991    1.0000 </r>
       <r>    2.9993    1.0000 </r>
       <r>    3.0030    1.0000 </r>
       <r>    3.0094    1.0000 </r>
       <r>    3.0171    1.0000 </r>
       <r>    3.0173    1.0000 </r>
       <r>    3.3565    1.0000 </r>
       <r>    3.3608    1.0000 </r>
       <r>    3.3627    1.0000 </r>
       <r>    3.3790    1.0000 </r>
       <r>    3.3812    1.0000 </r>
       <r>    3.3842    1.0000 </r>
       <r>    3.4650    1.0000 </r>
       <r>    3.4666    1.0000 </r>
       <r>    3.4716    1.0000 </r>
       <r>    3.7325    1.0000 </r>
       <r>    3.7354    1.0000 </r>
       <r>    3.7392    1.0000 </r>
       <r>    3.7408    1.0000 </r>
       <r>    3.7416    1.0000 </r>
       <r>    3.7426    1.0000 </r>
       <r>    3.7790    1.0000 </r>
       <r>    3.7806    1.0000 </r>
       <r>    3.7865    1.0000 </r>
       <r>    4.0367    1.0000 </r>
       <r>    4.0980    1.0000 </r>
       <r>    4.0991    1.0000 </r>
       <r>    4.1033    1.0000 </r>
       <r>    4.3395    1.0000 </r>
       <r>    4.3412    1.0000 </r>
       <r>    4.3478    1.0000 </r>
       <r>    4.3953    1.0000 </r>
       <r>    4.4040    1.0000 </r>
       <r>    4.4048    1.0000 </r>
       <r>    4.5594    1.0000 </r>
       <r>    4.5691    1.0000 </r>
       <r>    4.8688    1.0000 </r>
       <r>    4.8702    1.0000 </r>
       <r>    4.8788    1.0000 </r>
       <r>    5.3466    1.0000 </r>
       <r>    5.3574    1.0000 </r>
       <r>    6.5635    0.0000 </r>
       <r>    6.5636    0.0000 </r>
       <r>    6.5678    0.0000 </r>
       <r>    7.0006    0.0000 </r>
       <r>    7.0055    0.0000 </r>
       <r>    7.0094    0.0000 </r>
       <r>    7.2351    0.0000 </r>
       <r>    7.4878    0.0000 </r>
       <r>    7.4927    0.0000 </r>
       <r>    7.4962    0.0000 </r>
       <r>    7.6146    0.0000 </r>
       <r>    7.6197    0.0000 </r>
       <r>    7.6206    0.0000 </r>
       <r>    7.7775    0.0000 </r>
       <r>    7.7807    0.0000 </r>
       <r>    7.7824    0.0000 </r>
       <r>    7.7999    0.0000 </r>
       <r>    7.8003    0.0000 </r>
       <r>    7.8056    0.0000 </r>
       <r>    8.0208    0.0000 </r>
       <r>    8.0270    0.0000 </r>
       <r>    8.0294    0.0000 </r>
       <r>    8.0306    0.0000 </r>
       <r>    8.0312    0.0000 </r>
       <r>    8.0338    0.0000 </r>
       <r>    8.0836    0.0000 </r>
       <r>    8.2923    0.0000 </r>
       <r>    8.2950    0.0000 </r>
       <r>    8.2983    0.0000 </r>
       <r>    8.4919    0.0000 </r>
       <r>    8.5002    0.0000 </r>
       <r>    8.5025    0.0000 </r>
       <r>    8.5050    0.0000 </r>
       <r>    8.5128    0.0000 </r>
       <r>    8.5212    0.0000 </r>
       <r>    8.5491    0.0000 </r>
      </set>
      <set comment="kpoint 2">
       <r>   -5.9932    1.0000 </r>
       <r>   -5.4661    1.0000 </r>
       <r>   -5.4648    1.0000 </r>
       <r>   -5.4630    1.0000 </r>
       <r>   -4.9670    1.0000 </r>
       <r>   -4.9663    1.0000 </r>
       <r>   -4.9634    1.0000 </r>
       <r>   -4.5333    1.0000 </r>
       <r>   -4.4339    1.0000 </r>
       <r>   -4.4327    1.0000 </r>
       <r>   -4.4316    1.0000 </r>
       <r>   -4.0203    1.0000 </r>
       <r>   -4.0174    1.0000 </r>
       <r>   -4.0174    1.0000 </r>
       <r>   -4.0172    1.0000 </r>
       <r>   -4.0144    1.0000 </r>
       <r>   -4.0092    1.0000 </r>
       <r>   -3.8271    1.0000 </r>
       <r>   -3.8262    1.0000 </r>
       <r>   -3.8176    1.0000 </r>
       <r>   -3.3331    1.0000 </r>
       <r>   -3.3302    1.0000 </r>
       <r>   -3.3272    1.0000 </r>
       <r>   -2.9619    1.0000 </r>
       <r>   -2.9596    1.0000 </r>
       <r>   -2.9551    1.0000 </r>
       <r>   -2.7955    1.0000 </r>
       <r>   -2.7937    1.0000 </r>
       <r>   -2.7924    1.0000 </r>
       <r>   -2.7919    1.0000 </r>
       <r>   -2.7894    1.0000 </r>
       <r>   -2.7803    1.0000 </r>
       <r>   -1.2561    1.0000 </r>
       <r>   -1.2546    1.0000 </r>
       <r>   -1.2507    1.0000 </r>
       <r>   -1.2495    1.0000 </r>
       <r>   -1.2481    1.0000 </r>
       <r>   -1.2371    1.0000 </r>
       <r>   -1.1545    1.0000 </r>
       <r>   -1.1513    1.0000 </r>
       <r>   -1.1498    1.0000 </r>
       <r>   -1.0396    1.0000 </r>
       <r>   -1.0346    1.0000 </r>
       <r>   -1.0286    1.0000 </r>
       <r>   -0.9490    1.0000 </r>
       <r>   -0.9464    1.0000 </r>
       <r>   -0.9326    1.0000 </r>
       <r>   -0.2411    1.0000 </r>
       <r>   -0.1693    1.0000 </r>
       <r>   -0.1669    1.0000 </r>
       <r>   -0.1620    1.0000 </r>
       <r>   -0.1608    1.0000 </r>
       <r>   -0.1584    1.0000 </r>
       <r>   -0.1518    1.0000 </r>
       <r>    0.7109    1.0000 </r>
       <r>    0.7143    1.0000 </r>
       <r>    0.7245    1.0000 </r>
       <r>    1.0434    1.0000 </r>
       <r>    1.0455    1.0000 </r>
       <r>    1.0522    1.0000 </r>
       <r>    1.6525    1.0000 </r>
       <r>    1.6542    1.0000 </r>
       <r>    1.6568    1.0000 </r>
       <r>    1.6574    1.0000 </r>
       <r>    1.6591    1.0000 </r>
       <r>    1.6613    1.0000 </r>
       <r>    1.7118    1.0000 </r>
       <r>    1.7135    1.0000 </r>
       <r>    1.7193    1.0000 </r>
       <r>    2.2680    1.0000 </r>
       <r>    2.2687    1.0000 </r>
       <r>    2.2718    1.0000 </r>
       <r>    2.3639    1.0000 </r>
       <r>    2.3655    1.0000 </r>
       <r>    2.3686    1.0000 </r>
       <r>    2.3710    1.0000 </r>
       <r>    2.3741    1.0000 </r>
       <r>    2.3752    1.0000 </r>
       <r>    2.4183    1.0000 </r>
       <r>    2.4231    1.0000 </r>
       <r>    2.4268    1.0000 </r>
       <r>    2.7324    1.0000 </r>
       <r>    2.7327    1.0000 </r>
       <r>    2.7339    1.0000 </r>
       <r>    2.7341    1.0000 </r>
       <r>    2.7347    1.0000 </r>
       <r>    2.7430    1.0000 </r>
       <r>    2.9937    1.0000 </r>
       <r>    2.9991    1.0000 </r>
       <r>    3.0007    1.0000 </r>
       <r>    3.0098    1.0000 </r>
       <r>    3.0108    1.0000 </r>
       <r>    3.0171    1.0000 </r>
       <r>    3.3608    1.0000 </r>
       <r>    3.3629    1.0000 </r>
       <r>    3.3680    1.0000 </r>
       <r>    3.3833    1.0000 </r>
       <r>    3.3860    1.0000 </r>
       <r>    3.3925    1.0000 </r>
       <r>    3.4614    1.0000 </r>
       <r>    3.4661    1.0000 </r>
       <r>    3.4695    1.0000 </r>
       <r>    3.7390    1.0000 </r>
       <r>    3.7405    1.0000 </r>
       <r>    3.7405    1.0000 </r>
       <r>    3.7435    1.0000 </r>
       <r>    3.7440    1.0000 </r>
       <r>    3.7553    1.0000 </r>
       <r>    3.7741    1.0000 </r>
       <r>    3.7799    1.0000 </r>
       <r>    3.7847    1.0000 </r>
       <r>    4.0447    1.0000 </r>
       <r>    4.0912    1.0000 </r>
       <r>    4.0973    1.0000 </r>
       <r>    4.0986    1.0000 </r>
       <r>    4.3345    1.0000 </r>
       <r>    4.3404    1.0000 </r>
       <r>    4.3423    1.0000 </r>
       <r>    4.4056    1.0000 </r>
       <r>    4.4067    1.0000 </r>
       <r>    4.4193    1.0000 </r>
       <r>    4.5567    1.0000 </r>
       <r>    4.5666    1.0000 </r>
       <r>    4.8607    1.0000 </r>
       <r>    4.8692    1.0000 </r>
       <r>    4.8723    1.0000 </r>
       <r>    5.3421    1.0000 </r>
       <r>    5.3527    1.0000 </r>
       <r>    6.5585    0.0000 </r>
       <r>    6.5599    0.0000 </r>
       <r>    6.5670    0.0000 </r>
       <r>    6.9976    0.0000 </r>
       <r>    7.0041    0.0000 </r>
       <r>    7.0095    0.0000 </r>
       <r>    7.2322    0.0000 </r>
       <r>    7.4842    0.0000 </r>
       <r>    7.4885    0.0000 </r>
       <r>    7.4945    0.0000 </r>
       <r>    7.6156    0.0000 </r>
       <r>    7.6236    0.0000 </r>
       <r>    7.6236    0.0000 </r>
       <r>    7.7773    0.0000 </r>
       <r>    7.7779    0.0000 </r>
       <r>    7.7826    0.0000 </r>
       <r>    7.7961    0.0000 </r>
       <r>    7.8015    0.0000 </r>
       <r>    7.8043    0.0000 </r>
       <r>    8.0252    0.0000 </r>
       <r>    8.0299    0.0000 </r>
       <r>    8.0305    0.0000 </r>
       <r>    8.0310    0.0000 </r>
       <r>    8.0366    0.0000 </r>
       <r>    8.0402    0.0000 </r>
       <r>    8.0792    0.0000 </r>
       <r>    8.2908    0.0000 </r>
       <r>    8.2953    0.0000 </r>
       <r>    8.2981    0.0000 </r>
       <r>    8.4956    0.0000 </r>
       <r>    8.5006    0.0000 </r>
       <r>    8.5031    0.0000 </r>
       <r>    8.5061    0.0000 </r>
       <r>    8.5189    0.0000 </r>
       <r>    8.5373    0.0000 </r>
       <r>    8.5446    0.0000 </r>
      </set>
      <set comment="kpoint 3">
       <r>   -5.9932    1.0000 </r>
       <r>   -5.4671    1.0000 </r>
       <r>   -5.4661    1.0000 </r>
       <r>   -5.4608    1.0000 </r>
       <r>   -4.9678    1.0000 </r>
       <r>   -4.9670    1.0000 </r>
       <r>   -4.9619    1.0000 </r>
       <r>   -4.5332    1.0000 </r>
       <r>   -4.4351    1.0000 </r>
       <r>   -4.4340    1.0000 </r>
       <r>   -4.4293    1.0000 </r>
       <r>   -4.0224    1.0000 </r>
       <r>   -4.0194    1.0000 </r>
       <r>   -4.0189    1.0000 </r>
       <r>   -4.0167    1.0000 </r>
       <r>   -4.0160    1.0000 </r>
       <r>   -4.0021    1.0000 </r>
       <r>   -3.8271    1.0000 </r>
       <r>   -3.8269    1.0000 </r>
       <r>   -3.8172    1.0000 </r>
       <r>   -3.3316    1.0000 </r>
       <r>   -3.3302    1.0000 </r>
       <r>   -3.3286    1.0000 </r>
       <r>   -2.9624    1.0000 </r>
       <r>   -2.9619    1.0000 </r>
       <r>   -2.9520    1.0000 </r>
       <r>   -2.7966    1.0000 </r>
       <r>   -2.7946    1.0000 </r>
       <r>   -2.7939    1.0000 </r>
       <r>   -2.7914    1.0000 </r>
       <r>   -2.7901    1.0000 </r>
       <r>   -2.7769    1.0000 </r>
       <r>   -1.2570    1.0000 </r>
       <r>   -1.2535    1.0000 </r>
       <r>   -1.2522    1.0000 </r>
       <r>   -1.2491    1.0000 </r>
       <r>   -1.2482    1.0000 </r>
       <r>   -1.2358    1.0000 </r>
       <r>   -1.1563    1.0000 </r>
       <r>   -1.1546    1.0000 </r>
       <r>   -1.1451    1.0000 </r>
       <r>   -1.0402    1.0000 </r>
       <r>   -1.0346    1.0000 </r>
       <r>   -1.0280    1.0000 </r>
       <r>   -0.9489    1.0000 </r>
       <r>   -0.9451    1.0000 </r>
       <r>   -0.9338    1.0000 </r>
       <r>   -0.2412    1.0000 </r>
       <r>   -0.1702    1.0000 </r>
       <r>   -0.1654    1.0000 </r>
       <r>   -0.1640    1.0000 </r>
       <r>   -0.1607    1.0000 </r>
       <r>   -0.1604    1.0000 </r>
       <r>   -0.1485    1.0000 </r>
       <r>    0.7110    1.0000 </r>
       <r>    0.7149    1.0000 </r>
       <r>    0.7237    1.0000 </r>
       <r>    1.0434    1.0000 </r>
       <r>    1.0460    1.0000 </r>
       <r>    1.0518    1.0000 </r>
       <r>    1.6506    1.0000 </r>
       <r>    1.6554    1.0000 </r>
       <r>    1.6557    1.0000 </r>
       <r>    1.6579    1.0000 </r>
       <r>    1.6589    1.0000 </r>
       <r>    1.6622    1.0000 </r>
       <r>    1.7133    1.0000 </r>
       <r>    1.7137    1.0000 </r>
       <r>    1.7184    1.0000 </r>
       <r>    2.2678    1.0000 </r>
       <r>    2.2681    1.0000 </r>
       <r>    2.2729    1.0000 </r>
       <r>    2.3628    1.0000 </r>
       <r>    2.3658    1.0000 </r>
       <r>    2.3690    1.0000 </r>
       <r>    2.3704    1.0000 </r>
       <r>    2.3738    1.0000 </r>
       <r>    2.3746    1.0000 </r>
       <r>    2.4196    1.0000 </r>
       <r>    2.4218    1.0000 </r>
       <r>    2.4280    1.0000 </r>
       <r>    2.7308    1.0000 </r>
       <r>    2.7332    1.0000 </r>
       <r>    2.7338    1.0000 </r>
       <r>    2.7340    1.0000 </r>
       <r>    2.7344    1.0000 </r>
       <r>    2.7445    1.0000 </r>
       <r>    2.9952    1.0000 </r>
       <r>    2.9979    1.0000 </r>
       <r>    3.0005    1.0000 </r>
       <r>    3.0104    1.0000 </r>
       <r>    3.0104    1.0000 </r>
       <r>    3.0167    1.0000 </r>
       <r>    3.3608    1.0000 </r>
       <r>    3.3621    1.0000 </r>
       <r>    3.3683    1.0000 </r>
       <r>    3.3834    1.0000 </r>
       <r>    3.3858    1.0000 </r>
       <r>    3.3932    1.0000 </r>
       <r>    3.4623    1.0000 </r>
       <r>    3.4650    1.0000 </r>
       <r>    3.4694    1.0000 </r>
       <r>    3.7390    1.0000 </r>
       <r>    3.7397    1.0000 </r>
       <r>    3.7405    1.0000 </r>
       <r>    3.7412    1.0000 </r>
       <r>    3.7480    1.0000 </r>
       <r>    3.7539    1.0000 </r>
       <r>    3.7755    1.0000 </r>
       <r>    3.7788    1.0000 </r>
       <r>    3.7850    1.0000 </r>
       <r>    4.0447    1.0000 </r>
       <r>    4.0929    1.0000 </r>
       <r>    4.0956    1.0000 </r>
       <r>    4.0986    1.0000 </r>
       <r>    4.3354    1.0000 </r>
       <r>    4.3392    1.0000 </r>
       <r>    4.3423    1.0000 </r>
       <r>    4.4056    1.0000 </r>
       <r>    4.4082    1.0000 </r>
       <r>    4.4177    1.0000 </r>
       <r>    4.5570    1.0000 </r>
       <r>    4.5666    1.0000 </r>
       <r>    4.8623    1.0000 </r>
       <r>    4.8677    1.0000 </r>
       <r>    4.8723    1.0000 </r>
       <r>    5.3421    1.0000 </r>
       <r>    5.3527    1.0000 </r>
       <r>    6.5587    0.0000 </r>
       <r>    6.5597    0.0000 </r>
       <r>    6.5670    0.0000 </r>
       <r>    6.9971    0.0000 </r>
       <r>    7.0046    0.0000 </r>
       <r>    7.0095    0.0000 </r>
       <r>    7.2323    0.0000 </r>
       <r>    7.4836    0.0000 </r>
       <r>    7.4895    0.0000 </r>
       <r>    7.4946    0.0000 </r>
       <r>    7.6144    0.0000 </r>
       <r>    7.6235    0.0000 </r>
       <r>    7.6247    0.0000 </r>
       <r>    7.7743    0.0000 </r>
       <r>    7.7807    0.0000 </r>
       <r>    7.7825    0.0000 </r>
       <r>    7.7981    0.0000 </r>
       <r>    7.7994    0.0000 </r>
       <r>    7.8045    0.0000 </r>
       <r>    8.0253    0.0000 </r>
       <r>    8.0283    0.0000 </r>
       <r>    8.0294    0.0000 </r>
       <r>    8.0307    0.0000 </r>
       <r>    8.0372    0.0000 </r>
       <r>    8.0421    0.0000 </r>
       <r>    8.0795    0.0000 </r>
       <r>    8.2901    0.0000 </r>
       <r>    8.2960    0.0000 </r>
       <r>    8.2981    0.0000 </r>
       <r>    8.4963    0.0000 </r>
       <r>    8.4994    0.0000 </r>
       <r>    8.5016    0.0000 </r>
       <r>    8.5059    0.0000 </r>
       <r>    8.5087    0.0000 </r>
       <r>    8.5385    0.0000 </r>
       <r>    8.5674    0.0000 </r>
      </set>
     </set>
    </set>
   </array>
  </eigenvalues>
  <separator name="orbital magnetization" >
   <v name="MAGDIPOLOUT">      0.00000000      0.00000000      0.00000000</v>
  </separator>
  <dos>
   <i name="efermi">      5.61326158 </i>
   <total>
    <array>
     <dimension dim="1">gridpoints</dimension>
     <dimension dim="2">spin</dimension>
     <field>energy</field>
     <field>total</field>
     <field>integrated</field>
     <set>
      <set comment="spin 1">
       <r>    -6.7213     0.0000     0.0000 </r>
       <r>    -6.6679     0.0000     0.0000 </r>
       <r>    -6.6145     0.0000     0.0000 </r>
       <r>    -6.5611     0.0000     0.0000 </r>
       <r>    -6.5077     0.0000     0.0000 </r>
       <r>    -6.4543     0.0000     0.0000 </r>
       <r>    -6.4009     0.0000     0.0000 </r>
       <r>    -6.3475     0.0000     0.0000 </r>
       <r>    -6.2942     0.0000     0.0000 </r>
       <r>    -6.2408     0.0000     0.0000 </r>
       <r>    -6.1874     0.0000     0.0000 </r>
       <r>    -6.1340     0.0013     0.0001 </r>
       <r>    -6.0806     0.2498     0.0134 </r>
       <r>    -6.0272     6.0358     0.3356 </r>
       <r>    -5.9738    20.2318     1.4158 </r>
       <r>    -5.9204    10.1995     1.9603 </r>
       <r>    -5.8670     0.7360     1.9996 </r>
       <r>    -5.8137     0.0067     2.0000 </r>
       <r>    -5.7603     0.0000     2.0000 </r>
       <r>    -5.7069     0.0000     2.0000 </r>
       <r>    -5.6535     0.0000     2.0000 </r>
       <r>    -5.6001     0.0075     2.0004 </r>
       <r>    -5.5467     1.1544     2.0620 </r>
       <r>    -5.4933    22.4425     3.2602 </r>
       <r>    -5.4399    61.6261     6.5504 </r>
       <r>    -5.3865    25.6234     7.9184 </r>
       <r>    -5.3332     1.5174     7.9994 </r>
       <r>    -5.2798     0.0114     8.0000 </r>
       <r>    -5.2264     0.0000     8.0000 </r>
       <r>    -5.1730     0.0000     8.0000 </r>
       <r>    -5.1196     0.0008     8.0000 </r>
       <r>    -5.0662     0.2504     8.0134 </r>
       <r>    -5.0128     9.9598     8.5452 </r>
       <r>    -4.9594    53.6484    11.4094 </r>
       <r>    -4.9060    43.2908    13.7206 </r>
       <r>    -4.8527     5.1515    13.9957 </r>
       <r>    -4.7993     0.0808    14.0000 </r>
       <r>    -4.7459     0.0002    14.0000 </r>
       <r>    -4.6925     0.0001    14.0000 </r>
       <r>    -4.6391     0.0473    14.0025 </r>
       <r>    -4.5857     2.4063    14.1310 </r>
       <r>    -4.5323    16.5334    15.0137 </r>
       <r>    -4.4789    26.6472    16.4364 </r>
       <r>    -4.4255    56.6478    19.4607 </r>
       <r>    -4.3722    42.5771    21.7339 </r>
       <r>    -4.3188     4.9096    21.9960 </r>
       <r>    -4.2654     0.0745    22.0000 </r>
       <r>    -4.2120     0.0001    22.0000 </r>
       <r>    -4.1586     0.0076    22.0004 </r>
       <r>    -4.1052     1.4393    22.0772 </r>
       <r>    -4.0518    34.7237    23.9311 </r>
       <r>    -3.9984   119.6377    30.3185 </r>
       <r>    -3.9450    63.8720    33.7285 </r>
       <r>    -3.8917     8.2873    34.1710 </r>
       <r>    -3.8383    35.8141    36.0830 </r>
       <r>    -3.7849    58.3476    39.1982 </r>
       <r>    -3.7315    14.5113    39.9729 </r>
       <r>    -3.6781     0.5052    39.9999 </r>
       <r>    -3.6247     0.0022    40.0000 </r>
       <r>    -3.5713     0.0000    40.0000 </r>
       <r>    -3.5179     0.0000    40.0000 </r>
       <r>    -3.4645     0.0070    40.0004 </r>
       <r>    -3.4112     1.0993    40.0591 </r>
       <r>    -3.3578    21.7984    41.2229 </r>
       <r>    -3.3044    61.4252    44.5023 </r>
       <r>    -3.2510    26.4052    45.9120 </r>
       <r>    -3.1976     1.6346    45.9993 </r>
       <r>    -3.1442     0.0130    46.0000 </r>
       <r>    -3.0908     0.0118    46.0006 </r>
       <r>    -3.0374     1.5396    46.0828 </r>
       <r>    -2.9840    25.6563    47.4526 </r>
       <r>    -2.9306    61.4776    50.7348 </r>
       <r>    -2.8773    24.2498    52.0295 </r>
       <r>    -2.8239    39.3511    54.1304 </r>
       <r>    -2.7705   120.9403    60.5873 </r>
       <r>    -2.7171    59.5205    63.7650 </r>
       <r>    -2.6637     4.3582    63.9977 </r>
       <r>    -2.6103     0.0427    64.0000 </r>
       <r>    -2.5569     0.0001    64.0000 </r>
       <r>    -2.5035     0.0000    64.0000 </r>
       <r>    -2.4501     0.0000    64.0000 </r>
       <r>    -2.3968     0.0000    64.0000 </r>
       <r>    -2.3434     0.0000    64.0000 </r>
       <r>    -2.2900     0.0000    64.0000 </r>
       <r>    -2.2366     0.0000    64.0000 </r>
       <r>    -2.1832     0.0000    64.0000 </r>
       <r>    -2.1298     0.0000    64.0000 </r>
       <r>    -2.0764     0.0000    64.0000 </r>
       <r>    -2.0230     0.0000    64.0000 </r>
       <r>    -1.9696     0.0000    64.0000 </r>
       <r>    -1.9163     0.0000    64.0000 </r>
       <r>    -1.8629     0.0000    64.0000 </r>
       <r>    -1.8095     0.0000    64.0000 </r>
       <r>    -1.7561     0.0000    64.0000 </r>
       <r>    -1.7027     0.0000    64.0000 </r>
       <r>    -1.6493     0.0000    64.0000 </r>
       <r>    -1.5959     0.0000    64.0000 </r>
       <r>    -1.5425     0.0000    64.0000 </r>
       <r>    -1.4891     0.0000    64.0000 </r>
       <r>    -1.4358     0.0000    64.0000 </r>
       <r>    -1.3824     0.0219    64.0012 </r>
       <r>    -1.3290     2.8409    64.1528 </r>
       <r>    -1.2756    48.4878    66.7416 </r>
       <r>    -1.2222   124.6345    73.3957 </r>
       <r>    -1.1688    80.5790    77.6977 </r>
       <r>    -1.1154    63.9344    81.1111 </r>
       <r>    -1.0620    39.0632    83.1966 </r>
       <r>    -1.0086    66.6080    86.7528 </r>
       <r>    -0.9553    67.3839    90.3503 </r>
       <r>    -0.9019    56.2979    93.3560 </r>
       <r>    -0.8485    11.6914    93.9802 </r>
       <r>    -0.7951     0.3690    93.9999 </r>
       <r>    -0.7417     0.0016    94.0000 </r>
       <r>    -0.6883     0.0000    94.0000 </r>
       <r>    -0.6349     0.0000    94.0000 </r>
       <r>    -0.5815     0.0000    94.0000 </r>
       <r>    -0.5281     0.0000    94.0000 </r>
       <r>    -0.4748     0.0000    94.0000 </r>
       <r>    -0.4214     0.0000    94.0000 </r>
       <r>    -0.3680     0.0096    94.0005 </r>
       <r>    -0.3146     0.9069    94.0489 </r>
       <r>    -0.2612    11.6237    94.6695 </r>
       <r>    -0.2078    39.9933    96.8047 </r>
       <r>    -0.1544   111.2932   102.7465 </r>
       <r>    -0.1010    87.1618   107.4000 </r>
       <r>    -0.0476    11.0418   107.9895 </r>
       <r>     0.0057     0.1955   108.0000 </r>
       <r>     0.0591     0.0004   108.0000 </r>
       <r>     0.1125     0.0000   108.0000 </r>
       <r>     0.1659     0.0000   108.0000 </r>
       <r>     0.2193     0.0000   108.0000 </r>
       <r>     0.2727     0.0000   108.0000 </r>
       <r>     0.3261     0.0000   108.0000 </r>
       <r>     0.3795     0.0000   108.0000 </r>
       <r>     0.4329     0.0000   108.0000 </r>
       <r>     0.4862     0.0000   108.0000 </r>
       <r>     0.5396     0.0001   108.0000 </r>
       <r>     0.5930     0.0393   108.0021 </r>
       <r>     0.6464     3.2160   108.1738 </r>
       <r>     0.6998    35.3097   110.0589 </r>
       <r>     0.7532    58.2667   113.1697 </r>
       <r>     0.8066    14.9934   113.9702 </r>
       <r>     0.8600     0.5549   113.9999 </r>
       <r>     0.9134     0.0121   114.0005 </r>
       <r>     0.9667     1.3301   114.0715 </r>
       <r>     1.0201    23.8563   115.3452 </r>
       <r>     1.0735    61.4991   118.6286 </r>
       <r>     1.1269    24.2974   119.9258 </r>
       <r>     1.1803     1.3803   119.9995 </r>
       <r>     1.2337     0.0100   120.0000 </r>
       <r>     1.2871     0.0000   120.0000 </r>
       <r>     1.3405     0.0000   120.0000 </r>
       <r>     1.3939     0.0000   120.0000 </r>
       <r>     1.4473     0.0000   120.0000 </r>
       <r>     1.5006     0.0012   120.0001 </r>
       <r>     1.5540     0.4183   120.0224 </r>
       <r>     1.6074    17.9929   120.9830 </r>
       <r>     1.6608   110.3690   126.8755 </r>
       <r>     1.7142   137.8391   134.2346 </r>
       <r>     1.7676    62.1069   137.5504 </r>
       <r>     1.8210     8.2462   137.9907 </r>
       <r>     1.8744     0.1739   138.0000 </r>
       <r>     1.9278     0.0005   138.0000 </r>
       <r>     1.9811     0.0000   138.0000 </r>
       <r>     2.0345     0.0000   138.0000 </r>
       <r>     2.0879     0.0000   138.0000 </r>
       <r>     2.1413     0.0204   138.0011 </r>
       <r>     2.1947     2.1987   138.1185 </r>
       <r>     2.2481    30.4354   139.7434 </r>
       <r>     2.3015    66.3874   143.2877 </r>
       <r>     2.3549    88.7145   148.0241 </r>
       <r>     2.4083   152.1965   156.1497 </r>
       <r>     2.4616    91.3868   161.0288 </r>
       <r>     2.5150    17.5513   161.9658 </r>
       <r>     2.5684     0.6370   161.9999 </r>
       <r>     2.6218     0.1674   162.0088 </r>
       <r>     2.6752    10.2844   162.5579 </r>
       <r>     2.7286    85.9885   167.1487 </r>
       <r>     2.7820   107.4008   172.8827 </r>
       <r>     2.8354    20.3908   173.9714 </r>
       <r>     2.8888     0.6630   174.0068 </r>
       <r>     2.9421     8.4249   174.4566 </r>
       <r>     2.9955    77.4293   178.5904 </r>
       <r>     3.0489   111.7974   184.5592 </r>
       <r>     3.1023    26.0805   185.9516 </r>
       <r>     3.1557     0.9022   185.9998 </r>
       <r>     3.2091     0.0051   186.0001 </r>
       <r>     3.2625     0.3212   186.0172 </r>
       <r>     3.3159    13.6820   186.7477 </r>
       <r>     3.3693    89.4269   191.5221 </r>
       <r>     3.4226   112.5917   197.5332 </r>
       <r>     3.4760    75.9809   201.5898 </r>
       <r>     3.5294    40.8089   203.7685 </r>
       <r>     3.5828     4.2763   203.9968 </r>
       <r>     3.6362     0.4292   204.0198 </r>
       <r>     3.6896    16.9069   204.9224 </r>
       <r>     3.7430   115.7420   211.1018 </r>
       <r>     3.7964   153.0920   219.2752 </r>
       <r>     3.8498    47.8041   221.8274 </r>
       <r>     3.9031     3.2015   221.9983 </r>
       <r>     3.9565     0.3725   222.0182 </r>
       <r>     4.0099     7.6526   222.4268 </r>
       <r>     4.0633    38.1694   224.4646 </r>
       <r>     4.1167    69.5303   228.1767 </r>
       <r>     4.1701    31.7785   229.8734 </r>
       <r>     4.2235     2.4027   230.0016 </r>
       <r>     4.2769     4.0106   230.2158 </r>
       <r>     4.3303    40.8732   232.3979 </r>
       <r>     4.3836    84.6610   236.9179 </r>
       <r>     4.4370    73.0204   240.8164 </r>
       <r>     4.4904    22.6743   242.0270 </r>
       <r>     4.5438    21.6403   243.1823 </r>
       <r>     4.5972    40.1142   245.3240 </r>
       <r>     4.6506    12.1322   245.9717 </r>
       <r>     4.7040     0.5273   245.9999 </r>
       <r>     4.7574     0.0937   246.0049 </r>
       <r>     4.8108     5.3754   246.2918 </r>
       <r>     4.8641    43.4089   248.6094 </r>
       <r>     4.9175    53.1999   251.4497 </r>
       <r>     4.9709    10.0414   251.9858 </r>
       <r>     5.0243     0.2653   252.0000 </r>
       <r>     5.0777     0.0009   252.0000 </r>
       <r>     5.1311     0.0000   252.0000 </r>
       <r>     5.1845     0.0001   252.0000 </r>
       <r>     5.2379     0.0671   252.0036 </r>
       <r>     5.2913     3.7853   252.2057 </r>
       <r>     5.3446    29.4020   253.7754 </r>
       <r>     5.3980    35.0202   255.6451 </r>
       <r>     5.4514     6.4777   255.9910 </r>
       <r>     5.5048     0.1688   256.0000 </r>
       <r>     5.5582     0.0006   256.0000 </r>
       <r>     5.6116     0.0000   256.0000 </r>
       <r>     5.6650     0.0000   256.0000 </r>
       <r>     5.7184     0.0000   256.0000 </r>
       <r>     5.7718     0.0000   256.0000 </r>
       <r>     5.8251     0.0000   256.0000 </r>
       <r>     5.8785     0.0000   256.0000 </r>
       <r>     5.9319     0.0000   256.0000 </r>
       <r>     5.9853     0.0000   256.0000 </r>
       <r>     6.0387     0.0000   256.0000 </r>
       <r>     6.0921     0.0000   256.0000 </r>
       <r>     6.1455     0.0000   256.0000 </r>
       <r>     6.1989     0.0000   256.0000 </r>
       <r>     6.2523     0.0000   256.0000 </r>
       <r>     6.3057     0.0000   256.0000 </r>
       <r>     6.3590     0.0000   256.0000 </r>
       <r>     6.4124     0.0012   256.0001 </r>
       <r>     6.4658     0.3366   256.0180 </r>
       <r>     6.5192    11.6601   256.6406 </r>
       <r>     6.5726    55.6858   259.6136 </r>
       <r>     6.6260    40.3162   261.7660 </r>
       <r>     6.6794     4.3213   261.9967 </r>
       <r>     6.7328     0.0612   262.0000 </r>
       <r>     6.7862     0.0001   262.0000 </r>
       <r>     6.8395     0.0002   262.0000 </r>
       <r>     6.8929     0.0983   262.0053 </r>
       <r>     6.9463     5.6808   262.3085 </r>
       <r>     6.9997    44.4687   264.6827 </r>
       <r>     7.0531    52.4686   267.4839 </r>
       <r>     7.1065     9.4380   267.9878 </r>
       <r>     7.1599     0.9196   268.0369 </r>
       <r>     7.2133     9.8658   268.5636 </r>
       <r>     7.2667    20.3170   269.6483 </r>
       <r>     7.3200     6.3118   269.9853 </r>
       <r>     7.3734     0.3292   270.0029 </r>
       <r>     7.4268     4.0418   270.2187 </r>
       <r>     7.4802    39.0918   272.3058 </r>
       <r>     7.5336    57.2486   275.3622 </r>
       <r>     7.5870    31.7361   277.0566 </r>
       <r>     7.6404    61.1872   280.3233 </r>
       <r>     7.6938    30.3281   281.9425 </r>
       <r>     7.7472    28.3359   283.4553 </r>
       <r>     7.8005   109.0746   289.2787 </r>
       <r>     7.8539    78.6430   293.4774 </r>
       <r>     7.9073     9.6766   293.9940 </r>
       <r>     7.9607     5.8147   294.3044 </r>
       <r>     8.0141    67.9811   297.9339 </r>
       <r>     8.0675   130.3039   304.8907 </r>
       <r>     8.1209    51.9745   307.6655 </r>
       <r>     8.1743     6.1310   307.9929 </r>
       <r>     8.2277     3.3810   308.1734 </r>
       <r>     8.2810    35.8022   310.0848 </r>
       <r>     8.3344    58.4025   313.2029 </r>
       <r>     8.3878    14.5616   313.9803 </r>
       <r>     8.4412     8.6913   314.4443 </r>
       <r>     8.4946    76.3437   318.5202 </r>
       <r>     8.5480   125.7138   325.2320 </r>
       <r>     8.6014    46.9700   327.7396 </r>
       <r>     8.6548     4.7659   327.9941 </r>
       <r>     8.7082     0.1102   328.0000 </r>
       <r>     8.7615     0.0004   328.0000 </r>
       <r>     8.8149     0.0000   328.0000 </r>
       <r>     8.8683     0.0000   328.0000 </r>
       <r>     8.9217     0.0000   328.0000 </r>
       <r>     8.9751     0.0000   328.0000 </r>
       <r>     9.0285     0.0000   328.0000 </r>
       <r>     9.0819     0.0000   328.0000 </r>
       <r>     9.1353     0.0000   328.0000 </r>
       <r>     9.1887     0.0000   328.0000 </r>
       <r>     9.2420     0.0000   328.0000 </r>
       <r>     9.2954     0.0000   328.0000 </r>
      </set>
     </set>
    </array>
   </total>
  </dos>
 </calculation>
 <structure name="finalpos" >
  <crystal>
   <varray name="basis" >
    <v>      10.93252578       0.00000000       0.00000000 </v>
    <v>       0.00000000      10.93252578       0.00000000 </v>
    <v>       0.00000000       0.00000000      10.93252578 </v>
   </varray>
   <i name="volume">   1306.65679237 </i>
   <varray name="rec_basis" >
    <v>       0.09147017       0.00000000       0.00000000 </v>
    <v>       0.00000000       0.09147017       0.00000000 </v>
    <v>       0.00000000       0.00000000       0.09147017 </v>
   </varray>
  </crystal>
  <varray name="positions" >
   <v>       0.44024411       0.43750000       0.43750000 </v>
   <v>       0.93750000       0.43750000       0.43750000 </v>
   <v>       0.43750000       0.93750000       0.43750000 </v>
   <v>       0.93750000       0.93750000       0.43750000 </v>
   <v>       0.43750000       0.43750000       0.93750000 </v>
   <v>       0.93750000       0.43750000       0.93750000 </v>
   <v>       0.43750000       0.93750000       0.93750000 </v>
   <v>       0.93750000       0.93750000       0.93750000 </v>
   <v>       0.43750000       0.18750000       0.18750000 </v>
   <v>       0.93750000       0.18750000       0.18750000 </v>
   <v>       0.43750000       0.68750000       0.18750000 </v>
   <v>       0.93750000       0.68750000       0.18750000 </v>
   <v>       0.43750000       0.18750000       0.68750000 </v>
   <v>       0.93750000       0.18750000       0.68750000 </v>
   <v>       0.43750000       0.68750000       0.68750000 </v>
   <v>       0.93750000       0.68750000       0.68750000 </v>
   <v>       0.18750000       0.43750000       0.18750000 </v>
   <v>       0.68750000       0.43750000       0.18750000 </v>
   <v>       0.18750000       0.93750000       0.18750000 </v>
   <v>       0.68750000       0.93750000       0.18750000 </v>
   <v>       0.18750000       0.43750000       0.68750000 </v>
   <v>       0.68750000       0.43750000       0.68750000 </v>
   <v>       0.18750000       0.93750000       0.68750000 </v>
   <v>       0.68750000       0.93750000       0.68750000 </v>
   <v>       0.18750000       0.18750000       0.43750000 </v>
   <v>       0.68750000       0.18750000       0.43750000 </v>
   <v>       0.18750000       0.68750000       0.43750000 </v>
   <v>       0.68750000       0.68750000       0.43750000 </v>
   <v>       0.18750000       0.18750000       0.93750000 </v>
   <v>       0.68750000       0.18750000       0.93750000 </v>
   <v>       0.18750000       0.68750000       0.93750000 </v>
   <v>       0.68750000       0.68750000       0.93750000 </v>
   <v>       0.06250000       0.06250000       0.06250000 </v>
   <v>       0.56250000       0.06250000       0.06250000 </v>
   <v>       0.06250000       0.56250000       0.06250000 </v>
   <v>       0.56250000       0.56250000       0.06250000 </v>
   <v>       0.06250000       0.06250000       0.56250000 </v>
   <v>       0.56250000       0.06250000       0.56250000 </v>
   <v>       0.06250000       0.56250000       0.56250000 </v>
   <v>       0.56250000       0.56250000       0.56250000 </v>
   <v>       0.06250000       0.31250000       0.31250000 </v>
   <v>       0.56250000       0.31250000       0.31250000 </v>
   <v>       0.06250000       0.81250000       0.31250000 </v>
   <v>       0.56250000       0.81250000       0.31250000 </v>
   <v>       0.06250000       0.31250000       0.81250000 </v>
   <v>       0.56250000       0.31250000       0.81250000 </v>
   <v>       0.06250000       0.81250000       0.81250000 </v>
   <v>       0.56250000       0.81250000       0.81250000 </v>
   <v>       0.31250000       0.06250000       0.31250000 </v>
   <v>       0.81250000       0.06250000       0.31250000 </v>
   <v>       0.31250000       0.56250000       0.31250000 </v>
   <v>       0.81250000       0.56250000       0.31250000 </v>
   <v>       0.31250000       0.06250000       0.81250000 </v>
   <v>       0.80975589       0.06250000       0.81250000 </v>
   <v>       0.31250000       0.56250000       0.81250000 </v>
   <v>       0.81250000       0.56250000       0.81250000 </v>
   <v>       0.31250000       0.31250000       0.06250000 </v>
   <v>       0.81250000       0.31250000       0.06250000 </v>
   <v>       0.31250000       0.81250000       0.06250000 </v>
   <v>       0.81250000       0.81250000       0.06250000 </v>
   <v>       0.31250000       0.31250000       0.56250000 </v>
   <v>       0.81250000       0.31250000       0.56250000 </v>
   <v>       0.31250000       0.81250000       0.56250000 </v>
   <v>       0.81250000       0.81250000       0.56250000 </v>
  </varray>
 </structure>
</modeling>
