<?xml version="1.0" encoding="ISO-8859-1"?>
<modeling>
 <generator>
  <i name="program" type="string">vasp </i>
  <i name="version" type="string">5.4.1  </i>
  <i name="subversion" type="string">05Feb16 (build Mar 26 2016 11:58:25) complex                          parallel </i>
  <i name="platform" type="string">IFC91_ompi </i>
  <i name="date" type="string">2017 03 12 </i>
  <i name="time" type="string">12:19:41 </i>
 </generator>
 <incar>
  <i type="string" name="PREC">accurate</i>
  <i type="int" name="IALGO">    38</i>
  <i type="logical" name="ADDGRID"> T  </i>
  <i type="int" name="NELMIN">     5</i>
  <i type="int" name="IBRION">    -1</i>
  <i name="EDIFF">      0.00000001</i>
  <i name="ENCUT">    300.00000000</i>
  <i type="logical" name="LREAL"> F  </i>
  <i type="int" name="ISMEAR">     0</i>
  <i name="SIGMA">      0.05000000</i>
  <i type="logical" name="LWAVE"> F  </i>
  <i type="logical" name="LCHARG"> F  </i>
  <v type="int" name="KPOINT_BSE">    -1     0     0     0</v>
 </incar>
 <kpoints>
  <generation param="Monkhorst-Pack">
   <v type="int" name="divisions">       2        2        2 </v>
   <v name="usershift">      0.00000000       0.00000000       0.00000000 </v>
   <v name="genvec1">      0.50000000       0.00000000       0.00000000 </v>
   <v name="genvec2">      0.00000000       0.50000000       0.00000000 </v>
   <v name="genvec3">      0.00000000       0.00000000       0.50000000 </v>
   <v name="shift">      0.50000000       0.50000000       0.50000000 </v>
  </generation>
  <varray name="kpointlist" >
   <v>       0.25000000       0.25000000       0.25000000 </v>
   <v>      -0.25000000       0.25000000       0.25000000 </v>
   <v>       0.25000000      -0.25000000       0.25000000 </v>
  </varray>
  <varray name="weights" >
   <v>       0.50000000 </v>
   <v>       0.25000000 </v>
   <v>       0.25000000 </v>
  </varray>
 </kpoints>
 <parameters>
  <separator name="general" >
   <i type="string" name="SYSTEM">unknown system</i>
   <i type="logical" name="LCOMPAT"> F  </i>
  </separator>
  <separator name="electronic" >
   <i type="string" name="PREC">accura</i>
   <i name="ENMAX">    300.00000000</i>
   <i name="ENAUG">    322.06900000</i>
   <i name="EDIFF">      0.00000001</i>
   <i type="int" name="IALGO">    38</i>
   <i type="int" name="IWAVPR">    10</i>
   <i type="int" name="NBANDS">   164</i>
   <i name="NELECT">    256.00000000</i>
   <i type="int" name="TURBO">     0</i>
   <i type="int" name="IRESTART">     0</i>
   <i type="int" name="NREBOOT">     0</i>
   <i type="int" name="NMIN">     0</i>
   <i name="EREF">      0.00000000</i>
   <separator name="electronic smearing" >
    <i type="int" name="ISMEAR">     0</i>
    <i name="SIGMA">      0.05000000</i>
    <i name="KSPACING">      0.50000000</i>
    <i type="logical" name="KGAMMA"> T  </i>
   </separator>
   <separator name="electronic projectors" >
    <i type="logical" name="LREAL"> F  </i>
    <v name="ROPT">      0.00000000</v>
    <i type="int" name="LMAXPAW">  -100</i>
    <i type="int" name="LMAXMIX">     2</i>
    <i type="logical" name="NLSPLINE"> F  </i>
   </separator>
   <separator name="electronic startup" >
    <i type="int" name="ISTART">     0</i>
    <i type="int" name="ICHARG">     2</i>
    <i type="int" name="INIWAV">     1</i>
   </separator>
   <separator name="electronic spin" >
    <i type="int" name="ISPIN">     1</i>
    <i type="logical" name="LNONCOLLINEAR"> F  </i>
    <v name="MAGMOM">      1.00000000      1.00000000      1.00000000      1.00000000      1.00000000      1.00000000      1.00000000      1.00000000      1.00000000      1.00000000      1.00000000      1.00000000      1.00000000      1.00000000      1.00000000      1.00000000      1.00000000      1.00000000      1.00000000      1.00000000
      1.00000000      1.00000000      1.00000000      1.00000000      1.00000000      1.00000000      1.00000000      1.00000000      1.00000000      1.00000000      1.00000000      1.00000000      1.00000000      1.00000000      1.00000000      1.00000000      1.00000000      1.00000000      1.00000000      1.00000000
      1.00000000      1.00000000      1.00000000      1.00000000      1.00000000      1.00000000      1.00000000      1.00000000      1.00000000      1.00000000      1.00000000      1.00000000      1.00000000      1.00000000      1.00000000      1.00000000      1.00000000      1.00000000      1.00000000      1.00000000
      1.00000000      1.00000000      1.00000000      1.00000000</v>
    <i name="NUPDOWN">     -1.00000000</i>
    <i type="logical" name="LSORBIT"> F  </i>
    <v name="SAXIS">      0.00000000      0.00000000      1.00000000</v>
    <i type="logical" name="LSPIRAL"> F  </i>
    <v name="QSPIRAL">      0.00000000      0.00000000      0.00000000</v>
    <i type="logical" name="LZEROZ"> F  </i>
   </separator>
   <separator name="electronic exchange-correlation" >
    <i type="logical" name="LASPH"> F  </i>
    <i type="logical" name="LMETAGGA"> F  </i>
   </separator>
   <separator name="electronic convergence" >
    <i type="int" name="NELM">    60</i>
    <i type="int" name="NELMDL">    -5</i>
    <i type="int" name="NELMIN">     5</i>
    <i name="ENINI">    300.00000000</i>
    <separator name="electronic convergence detail" >
     <i type="logical" name="LDIAG"> T  </i>
     <i type="logical" name="LSUBROT"> F  </i>
     <i name="WEIMIN">      0.00000000</i>
     <i name="EBREAK">      0.00000000</i>
     <i name="DEPER">      0.30000000</i>
     <i type="int" name="NRMM">     4</i>
     <i name="TIME">      0.40000000</i>
    </separator>
   </separator>
   <separator name="electronic mixer" >
    <i name="AMIX">      0.40000000</i>
    <i name="BMIX">      1.00000000</i>
    <i name="AMIN">      0.10000000</i>
    <i name="AMIX_MAG">      1.60000000</i>
    <i name="BMIX_MAG">      1.00000000</i>
    <separator name="electronic mixer details" >
     <i type="int" name="IMIX">     4</i>
     <i type="logical" name="MIXFIRST"> F  </i>
     <i type="int" name="MAXMIX">   -45</i>
     <i name="WC">    100.00000000</i>
     <i type="int" name="INIMIX">     1</i>
     <i type="int" name="MIXPRE">     1</i>
     <i type="int" name="MREMOVE">     5</i>
    </separator>
   </separator>
   <separator name="electronic dipolcorrection" >
    <i type="logical" name="LDIPOL"> F  </i>
    <i type="logical" name="LMONO"> F  </i>
    <i type="int" name="IDIPOL">     0</i>
    <i name="EPSILON">      1.00000000</i>
    <v name="DIPOL">   -100.00000000   -100.00000000   -100.00000000</v>
    <i name="EFIELD">      0.00000000</i>
   </separator>
  </separator>
  <separator name="grids" >
   <i type="int" name="NGX">    64</i>
   <i type="int" name="NGY">    64</i>
   <i type="int" name="NGZ">    64</i>
   <i type="int" name="NGXF">   128</i>
   <i type="int" name="NGYF">   128</i>
   <i type="int" name="NGZF">   128</i>
   <i type="logical" name="ADDGRID"> T  </i>
  </separator>
  <separator name="ionic" >
   <i type="int" name="NSW">     0</i>
   <i type="int" name="IBRION">    -1</i>
   <i type="int" name="ISIF">     2</i>
   <i name="PSTRESS">      0.00000000</i>
   <i name="EDIFFG">      0.00000010</i>
   <i type="int" name="NFREE">     0</i>
   <i name="POTIM">      0.50000000</i>
   <i name="SMASS">     -3.00000000</i>
   <i name="SCALEE">      1.00000000</i>
  </separator>
  <separator name="ionic md" >
   <i name="TEBEG">      0.00010000</i>
   <i name="TEEND">      0.00010000</i>
   <i type="int" name="NBLOCK">     1</i>
   <i type="int" name="KBLOCK">     1</i>
   <i type="int" name="NPACO">   256</i>
   <i name="APACO">     16.00000000</i>
  </separator>
  <separator name="symmetry" >
   <i type="int" name="ISYM">     2</i>
   <i name="SYMPREC">      0.00001000</i>
  </separator>
  <separator name="dos" >
   <i type="logical" name="LORBIT"> F  </i>
   <v name="RWIGS">     -1.00000000</v>
   <i type="int" name="NEDOS">   301</i>
   <i name="EMIN">     10.00000000</i>
   <i name="EMAX">    -10.00000000</i>
   <i name="EFERMI">      0.00000000</i>
  </separator>
  <separator name="writing" >
   <i type="int" name="NWRITE">     2</i>
   <i type="logical" name="LWAVE"> F  </i>
   <i type="logical" name="LCHARG"> F  </i>
   <i type="logical" name="LPARD"> F  </i>
   <i type="logical" name="LVTOT"> F  </i>
   <i type="logical" name="LVHAR"> F  </i>
   <i type="logical" name="LELF"> F  </i>
   <i type="logical" name="LOPTICS"> F  </i>
   <v name="STM">      0.00000000      0.00000000      0.00000000      0.00000000      0.00000000      0.00000000      0.00000000</v>
  </separator>
  <separator name="performance" >
   <i type="int" name="NPAR">     4</i>
   <i type="int" name="NSIM">     4</i>
   <i type="int" name="NBLK">    -1</i>
   <i type="logical" name="LPLANE"> T  </i>
   <i type="logical" name="LSCALAPACK"> T  </i>
   <i type="logical" name="LSCAAWARE"> F  </i>
   <i type="logical" name="LSCALU"> F  </i>
   <i type="logical" name="LASYNC"> F  </i>
   <i type="logical" name="LORBITALREAL"> F  </i>
  </separator>
  <separator name="miscellaneous" >
   <i type="int" name="IDIOT">     3</i>
   <i type="logical" name="LMUSIC"> F  </i>
   <v name="POMASS">     28.08500000</v>
   <v name="DARWINR">      0.00000000</v>
   <v name="DARWINV">      1.00000000</v>
   <i type="logical" name="LCORR"> T  </i>
  </separator>
  <i type="logical" name="GGA_COMPAT"> T  </i>
  <i type="logical" name="LBERRY"> F  </i>
  <i type="int" name="ICORELEVEL">     0</i>
  <i type="logical" name="LDAU"> F  </i>
  <i type="int" name="I_CONSTRAINED_M">     0</i>
  <separator name="electronic exchange-correlation" >
   <i type="string" name="GGA">--</i>
   <i type="int" name="VOSKOWN">     0</i>
   <i type="logical" name="LHFCALC"> F  </i>
   <i type="string" name="PRECFOCK"></i>
   <i type="logical" name="LSYMGRAD"> F  </i>
   <i type="logical" name="LHFONE"> F  </i>
   <i type="logical" name="LRHFCALC"> F  </i>
   <i type="logical" name="LTHOMAS"> F  </i>
   <i type="logical" name="LMODELHF"> F  </i>
   <i name="ENCUT4O">     -1.00000000</i>
   <i type="int" name="EXXOEP">     0</i>
   <i type="int" name="FOURORBIT">     0</i>
   <i name="AEXX">      0.00000000</i>
   <i name="HFALPHA">      0.00000000</i>
   <i name="MCALPHA">      0.00000000</i>
   <i name="ALDAX">      1.00000000</i>
   <i name="AGGAX">      1.00000000</i>
   <i name="ALDAC">      1.00000000</i>
   <i name="AGGAC">      1.00000000</i>
   <i type="int" name="NKREDX">     1</i>
   <i type="int" name="NKREDY">     1</i>
   <i type="int" name="NKREDZ">     1</i>
   <i type="logical" name="SHIFTRED"> F  </i>
   <i type="logical" name="ODDONLY"> F  </i>
   <i type="logical" name="EVENONLY"> F  </i>
   <i type="int" name="LMAXFOCK">     0</i>
   <i type="int" name="NMAXFOCKAE">     0</i>
   <i type="logical" name="LFOCKAEDFT"> F  </i>
   <i name="HFSCREEN">      0.00000000</i>
   <i name="HFSCREENC">      0.00000000</i>
   <i type="int" name="NBANDSGWLOW">     0</i>
  </separator>
  <separator name="vdW DFT" >
   <i type="logical" name="LUSE_VDW"> F  </i>
   <i name="Zab_VDW">     -0.84910000</i>
   <i name="PARAM1">      0.12340000</i>
   <i name="PARAM2">      1.00000000</i>
   <i name="PARAM3">      0.00000000</i>
  </separator>
  <separator name="model GW" >
   <i type="int" name="MODEL_GW">     0</i>
   <i name="MODEL_EPS0">     12.24990743</i>
   <i name="MODEL_ALPHA">      1.00000000</i>
  </separator>
  <separator name="linear response parameters" >
   <i type="logical" name="LEPSILON"> F  </i>
   <i type="logical" name="LRPA"> F  </i>
   <i type="logical" name="LNABLA"> F  </i>
   <i type="logical" name="LVEL"> F  </i>
   <i type="int" name="KINTER">     0</i>
   <i name="CSHIFT">      0.10000000</i>
   <i name="OMEGAMAX">     -1.00000000</i>
   <i name="DEG_THRESHOLD">      0.00200000</i>
  </separator>
  <separator name="orbital magnetization" >
   <i type="logical" name="NUCIND"> F  </i>
   <v name="MAGPOS">      0.00000000      0.00000000      0.00000000</v>
   <i type="logical" name="LNICSALL"> T  </i>
   <i type="logical" name="ORBITALMAG"> F  </i>
   <i type="logical" name="LMAGBLOCH"> F  </i>
   <i type="logical" name="LCHIMAG"> F  </i>
   <i type="logical" name="LGAUGE"> T  </i>
   <i type="int" name="MAGATOM">     0</i>
   <v name="MAGDIPOL">      0.00000000      0.00000000      0.00000000</v>
   <v name="AVECCONST">      0.00000000      0.00000000      0.00000000</v>
  </separator>
  <separator name="response functions" >
   <i type="logical" name="LADDER"> F  </i>
   <i type="logical" name="LFXC"> F  </i>
   <i type="logical" name="LHARTREE"> T  </i>
   <i type="int" name="IBSE">     0</i>
   <v type="int" name="KPOINT">    -1     0     0     0</v>
   <i type="logical" name="LTCTE"> F  </i>
   <i type="logical" name="LTETE"> F  </i>
   <i type="logical" name="LTRIPLET"> F  </i>
   <i type="logical" name="LFXCEPS"> F  </i>
   <i type="logical" name="LFXHEG"> F  </i>
   <i type="int" name="NATURALO">     0</i>
   <i type="logical" name="L2ORDER"> F  </i>
   <i type="logical" name="LUSEW"> F  </i>
   <i name="ENCUTGW">     -2.00000000</i>
   <i name="ENCUTGWSOFT">     -2.00000000</i>
   <i name="ENCUTLF">     -1.00000000</i>
   <i type="int" name="LMAXMP2">    -1</i>
   <i name="SCISSOR">      0.00000000</i>
   <i type="int" name="NOMEGA">     0</i>
   <i type="int" name="NOMEGAR">     0</i>
   <i type="int" name="NBANDSGW">    -1</i>
   <i type="int" name="NBANDSO">    -1</i>
   <i type="int" name="NBANDSV">    -1</i>
   <i type="int" name="NELM">     1</i>
   <i type="int" name="NELMHF">     1</i>
   <i type="int" name="DIM">     3</i>
   <i type="int" name="ANTIRES">     0</i>
   <i name="OMEGAMAX">    -30.00000000</i>
   <i name="OMEGAMIN">    -30.00000000</i>
   <i name="OMEGATL">   -200.00000000</i>
   <i type="int" name="OMEGAGRID">     0</i>
   <i name="CSHIFT">     -0.10000000</i>
   <i type="logical" name="SELFENERGY"> F  </i>
   <i type="logical" name="LSPECTRAL"> F  </i>
   <i type="logical" name="LSPECTRALGW"> F  </i>
   <i type="logical" name="LSINGLES"> F  </i>
   <i type="logical" name="LFERMIGW"> F  </i>
   <i type="logical" name="ODDONLYGW"> F  </i>
   <i type="logical" name="EVENONLYGW"> F  </i>
   <i type="int" name="NKREDLFX">     1</i>
   <i type="int" name="NKREDLFY">     1</i>
   <i type="int" name="NKREDLFZ">     1</i>
   <i type="int" name="MAXMEM">  1800</i>
   <i type="int" name="TELESCOPE">     0</i>
   <i type="int" name="TAUPAR">     1</i>
   <i type="int" name="OMEGAPAR">    -1</i>
   <i name="LAMBDA">      1.00000000</i>
  </separator>
  <separator name="External order field" >
   <i name="OFIELD_KAPPA">      0.00000000</i>
   <v name="OFIELD_K">      0.00000000      0.00000000      0.00000000</v>
   <i name="OFIELD_Q6_NEAR">      0.00000000</i>
   <i name="OFIELD_Q6_FAR">      0.00000000</i>
   <i name="OFIELD_A">      0.00000000</i>
  </separator>
 </parameters>
 <atominfo>
  <atoms>      64 </atoms>
  <types>       1 </types>
  <array name="atoms" >
   <dimension dim="1">ion</dimension>
   <field type="string">element</field>
   <field type="int">atomtype</field>
   <set>
    <rc><c>Si</c><c>   1</c></rc>
    <rc><c>Si</c><c>   1</c></rc>
    <rc><c>Si</c><c>   1</c></rc>
    <rc><c>Si</c><c>   1</c></rc>
    <rc><c>Si</c><c>   1</c></rc>
    <rc><c>Si</c><c>   1</c></rc>
    <rc><c>Si</c><c>   1</c></rc>
    <rc><c>Si</c><c>   1</c></rc>
    <rc><c>Si</c><c>   1</c></rc>
    <rc><c>Si</c><c>   1</c></rc>
    <rc><c>Si</c><c>   1</c></rc>
    <rc><c>Si</c><c>   1</c></rc>
    <rc><c>Si</c><c>   1</c></rc>
    <rc><c>Si</c><c>   1</c></rc>
    <rc><c>Si</c><c>   1</c></rc>
    <rc><c>Si</c><c>   1</c></rc>
    <rc><c>Si</c><c>   1</c></rc>
    <rc><c>Si</c><c>   1</c></rc>
    <rc><c>Si</c><c>   1</c></rc>
    <rc><c>Si</c><c>   1</c></rc>
    <rc><c>Si</c><c>   1</c></rc>
    <rc><c>Si</c><c>   1</c></rc>
    <rc><c>Si</c><c>   1</c></rc>
    <rc><c>Si</c><c>   1</c></rc>
    <rc><c>Si</c><c>   1</c></rc>
    <rc><c>Si</c><c>   1</c></rc>
    <rc><c>Si</c><c>   1</c></rc>
    <rc><c>Si</c><c>   1</c></rc>
    <rc><c>Si</c><c>   1</c></rc>
    <rc><c>Si</c><c>   1</c></rc>
    <rc><c>Si</c><c>   1</c></rc>
    <rc><c>Si</c><c>   1</c></rc>
    <rc><c>Si</c><c>   1</c></rc>
    <rc><c>Si</c><c>   1</c></rc>
    <rc><c>Si</c><c>   1</c></rc>
    <rc><c>Si</c><c>   1</c></rc>
    <rc><c>Si</c><c>   1</c></rc>
    <rc><c>Si</c><c>   1</c></rc>
    <rc><c>Si</c><c>   1</c></rc>
    <rc><c>Si</c><c>   1</c></rc>
    <rc><c>Si</c><c>   1</c></rc>
    <rc><c>Si</c><c>   1</c></rc>
    <rc><c>Si</c><c>   1</c></rc>
    <rc><c>Si</c><c>   1</c></rc>
    <rc><c>Si</c><c>   1</c></rc>
    <rc><c>Si</c><c>   1</c></rc>
    <rc><c>Si</c><c>   1</c></rc>
    <rc><c>Si</c><c>   1</c></rc>
    <rc><c>Si</c><c>   1</c></rc>
    <rc><c>Si</c><c>   1</c></rc>
    <rc><c>Si</c><c>   1</c></rc>
    <rc><c>Si</c><c>   1</c></rc>
    <rc><c>Si</c><c>   1</c></rc>
    <rc><c>Si</c><c>   1</c></rc>
    <rc><c>Si</c><c>   1</c></rc>
    <rc><c>Si</c><c>   1</c></rc>
    <rc><c>Si</c><c>   1</c></rc>
    <rc><c>Si</c><c>   1</c></rc>
    <rc><c>Si</c><c>   1</c></rc>
    <rc><c>Si</c><c>   1</c></rc>
    <rc><c>Si</c><c>   1</c></rc>
    <rc><c>Si</c><c>   1</c></rc>
    <rc><c>Si</c><c>   1</c></rc>
    <rc><c>Si</c><c>   1</c></rc>
   </set>
  </array>
  <array name="atomtypes" >
   <dimension dim="1">type</dimension>
   <field type="int">atomspertype</field>
   <field type="string">element</field>
   <field>mass</field>
   <field>valence</field>
   <field type="string">pseudopotential</field>
   <set>
    <rc><c>  64</c><c>Si</c><c>     28.08500000</c><c>      4.00000000</c><c>  PAW_PBE Si 05Jan2001                  </c></rc>
   </set>
  </array>
 </atominfo>
 <structure name="initialpos" >
  <crystal>
   <varray name="basis" >
    <v>      10.93252578       0.00000000       0.00000000 </v>
    <v>       0.00000000      10.93252578       0.00000000 </v>
    <v>       0.00000000       0.00000000      10.93252578 </v>
   </varray>
   <i name="volume">   1306.65679237 </i>
   <varray name="rec_basis" >
    <v>       0.09147017       0.00000000       0.00000000 </v>
    <v>       0.00000000       0.09147017       0.00000000 </v>
    <v>       0.00000000       0.00000000       0.09147017 </v>
   </varray>
  </crystal>
  <varray name="positions" >
   <v>       0.44024411       0.43750000       0.43750000 </v>
   <v>       0.93750000       0.43750000       0.43750000 </v>
   <v>       0.43750000       0.93750000       0.43750000 </v>
   <v>       0.93750000       0.93750000       0.43750000 </v>
   <v>       0.43750000       0.43750000       0.93750000 </v>
   <v>       0.93750000       0.43750000       0.93750000 </v>
   <v>       0.43750000       0.93750000       0.93750000 </v>
   <v>       0.93750000       0.93750000       0.93750000 </v>
   <v>       0.43750000       0.18750000       0.18750000 </v>
   <v>       0.93750000       0.18750000       0.18750000 </v>
   <v>       0.43750000       0.68750000       0.18750000 </v>
   <v>       0.93750000       0.68750000       0.18750000 </v>
   <v>       0.43750000       0.18750000       0.68750000 </v>
   <v>       0.93750000       0.18750000       0.68750000 </v>
   <v>       0.43750000       0.68750000       0.68750000 </v>
   <v>       0.93750000       0.68750000       0.68750000 </v>
   <v>       0.18750000       0.43750000       0.18750000 </v>
   <v>       0.68750000       0.43750000       0.18750000 </v>
   <v>       0.18750000       0.93750000       0.18750000 </v>
   <v>       0.68750000       0.93750000       0.18750000 </v>
   <v>       0.18750000       0.43750000       0.68750000 </v>
   <v>       0.68750000       0.43750000       0.68750000 </v>
   <v>       0.18750000       0.93750000       0.68750000 </v>
   <v>       0.68750000       0.93750000       0.68750000 </v>
   <v>       0.18750000       0.18750000       0.43750000 </v>
   <v>       0.68750000       0.18750000       0.43750000 </v>
   <v>       0.18750000       0.68750000       0.43750000 </v>
   <v>       0.68750000       0.68750000       0.43750000 </v>
   <v>       0.18750000       0.18750000       0.93750000 </v>
   <v>       0.68750000       0.18750000       0.93750000 </v>
   <v>       0.18750000       0.68750000       0.93750000 </v>
   <v>       0.68750000       0.68750000       0.93750000 </v>
   <v>       0.06250000       0.06250000       0.06250000 </v>
   <v>       0.56250000       0.06250000       0.06250000 </v>
   <v>       0.06250000       0.56250000       0.06250000 </v>
   <v>       0.56250000       0.56250000       0.06250000 </v>
   <v>       0.06250000       0.06250000       0.56250000 </v>
   <v>       0.56250000       0.06250000       0.56250000 </v>
   <v>       0.06250000       0.56250000       0.56250000 </v>
   <v>       0.56250000       0.56250000       0.56250000 </v>
   <v>       0.06250000       0.31250000       0.31250000 </v>
   <v>       0.56250000       0.31250000       0.31250000 </v>
   <v>       0.06250000       0.81250000       0.31250000 </v>
   <v>       0.56250000       0.81250000       0.31250000 </v>
   <v>       0.06250000       0.31250000       0.81250000 </v>
   <v>       0.56250000       0.31250000       0.81250000 </v>
   <v>       0.06250000       0.81250000       0.81250000 </v>
   <v>       0.56250000       0.81250000       0.81250000 </v>
   <v>       0.31250000       0.06250000       0.31250000 </v>
   <v>       0.81250000       0.06250000       0.31250000 </v>
   <v>       0.31250000       0.56250000       0.31250000 </v>
   <v>       0.81250000       0.56250000       0.31250000 </v>
   <v>       0.31250000       0.06250000       0.81250000 </v>
   <v>       0.81250000       0.06524411       0.81250000 </v>
   <v>       0.31250000       0.56250000       0.81250000 </v>
   <v>       0.81250000       0.56250000       0.81250000 </v>
   <v>       0.31250000       0.31250000       0.06250000 </v>
   <v>       0.81250000       0.31250000       0.06250000 </v>
   <v>       0.31250000       0.81250000       0.06250000 </v>
   <v>       0.81250000       0.81250000       0.06250000 </v>
   <v>       0.31250000       0.31250000       0.56250000 </v>
   <v>       0.81250000       0.31250000       0.56250000 </v>
   <v>       0.31250000       0.81250000       0.56250000 </v>
   <v>       0.81250000       0.81250000       0.56250000 </v>
  </varray>
 </structure>
 <calculation>
  <scstep>
   <time name="dav">    4.49    4.49</time>
   <time name="total">    4.75    4.76</time>
   <energy>
    <i name="alphaZ">    105.52440745 </i>
    <i name="ewald">  -7265.47100206 </i>
    <i name="hartreedc">   -361.71264411 </i>
    <i name="XCdc">   -597.75714164 </i>
    <i name="pawpsdc">   5639.92317535 </i>
    <i name="pawaedc">  -4513.95313856 </i>
    <i name="eentropy">     -0.00021666 </i>
    <i name="bandstr">    855.99604600 </i>
    <i name="atom">   6596.14994790 </i>
    <i name="e_fr_energy">    458.69943368 </i>
    <i name="e_wo_entrp">    458.69965034 </i>
    <i name="e_0_energy">    458.69954201 </i>
   </energy>
  </scstep>
  <scstep>
   <time name="dav">    4.75    4.78</time>
   <time name="total">    4.75    4.78</time>
   <energy>
    <i name="e_fr_energy">   -299.42629770 </i>
    <i name="e_wo_entrp">   -299.42629770 </i>
    <i name="e_0_energy">   -299.42629770 </i>
   </energy>
  </scstep>
  <scstep>
   <time name="dav">    4.80    4.81</time>
   <time name="total">    4.80    4.82</time>
   <energy>
    <i name="e_fr_energy">   -350.89616894 </i>
    <i name="e_wo_entrp">   -350.89616894 </i>
    <i name="e_0_energy">   -350.89616894 </i>
   </energy>
  </scstep>
  <scstep>
   <time name="dav">    4.80    4.81</time>
   <time name="total">    4.80    4.82</time>
   <energy>
    <i name="e_fr_energy">   -352.26596693 </i>
    <i name="e_wo_entrp">   -352.26596693 </i>
    <i name="e_0_energy">   -352.26596693 </i>
   </energy>
  </scstep>
  <scstep>
   <time name="dav">    4.70    4.71</time>
   <time name="total">    5.00    5.02</time>
   <energy>
    <i name="e_fr_energy">   -352.31280392 </i>
    <i name="e_wo_entrp">   -352.31280392 </i>
    <i name="e_0_energy">   -352.31280392 </i>
   </energy>
  </scstep>
  <scstep>
   <time name="dav">    4.66    4.66</time>
   <time name="total">    5.21    5.26</time>
   <energy>
    <i name="e_fr_energy">   -348.58450685 </i>
    <i name="e_wo_entrp">   -348.58450685 </i>
    <i name="e_0_energy">   -348.58450685 </i>
   </energy>
  </scstep>
  <scstep>
   <time name="dav">    4.61    4.62</time>
   <time name="total">    5.16    5.18</time>
   <energy>
    <i name="e_fr_energy">   -346.87190261 </i>
    <i name="e_wo_entrp">   -346.87190261 </i>
    <i name="e_0_energy">   -346.87190261 </i>
   </energy>
  </scstep>
  <scstep>
   <time name="dav">    4.67    4.68</time>
   <time name="total">    5.23    5.26</time>
   <energy>
    <i name="e_fr_energy">   -346.89811809 </i>
    <i name="e_wo_entrp">   -346.89811809 </i>
    <i name="e_0_energy">   -346.89811809 </i>
   </energy>
  </scstep>
  <scstep>
   <time name="dav">    4.83    4.84</time>
   <time name="total">    5.39    5.42</time>
   <energy>
    <i name="e_fr_energy">   -346.90485168 </i>
    <i name="e_wo_entrp">   -346.90485168 </i>
    <i name="e_0_energy">   -346.90485168 </i>
   </energy>
  </scstep>
  <scstep>
   <time name="dav">    4.48    4.49</time>
   <time name="total">    5.03    5.05</time>
   <energy>
    <i name="e_fr_energy">   -346.90690023 </i>
    <i name="e_wo_entrp">   -346.90690023 </i>
    <i name="e_0_energy">   -346.90690023 </i>
   </energy>
  </scstep>
  <scstep>
   <time name="dav">    4.78    4.79</time>
   <time name="total">    5.33    5.35</time>
   <energy>
    <i name="e_fr_energy">   -346.90687518 </i>
    <i name="e_wo_entrp">   -346.90687518 </i>
    <i name="e_0_energy">   -346.90687518 </i>
   </energy>
  </scstep>
  <scstep>
   <time name="dav">    4.60    4.61</time>
   <time name="total">    5.16    5.18</time>
   <energy>
    <i name="e_fr_energy">   -346.90689051 </i>
    <i name="e_wo_entrp">   -346.90689051 </i>
    <i name="e_0_energy">   -346.90689051 </i>
   </energy>
  </scstep>
  <scstep>
   <time name="dav">    4.68    4.68</time>
   <time name="total">    5.24    5.26</time>
   <energy>
    <i name="e_fr_energy">   -346.90689085 </i>
    <i name="e_wo_entrp">   -346.90689085 </i>
    <i name="e_0_energy">   -346.90689085 </i>
   </energy>
  </scstep>
  <scstep>
   <time name="dav">    4.88    4.88</time>
   <time name="total">    5.43    5.45</time>
   <energy>
    <i name="e_fr_energy">   -346.90689143 </i>
    <i name="e_wo_entrp">   -346.90689143 </i>
    <i name="e_0_energy">   -346.90689143 </i>
   </energy>
  </scstep>
  <scstep>
   <time name="dav">    3.97    3.97</time>
   <time name="total">    4.53    4.54</time>
   <energy>
    <i name="e_fr_energy">   -346.90689120 </i>
    <i name="e_wo_entrp">   -346.90689120 </i>
    <i name="e_0_energy">   -346.90689120 </i>
   </energy>
  </scstep>
  <scstep>
   <time name="dav">    3.20    3.20</time>
   <time name="total">    3.76    3.77</time>
   <energy>
    <i name="e_fr_energy">   -346.90689126 </i>
    <i name="e_wo_entrp">   -346.90689126 </i>
    <i name="e_0_energy">   -346.90689126 </i>
   </energy>
  </scstep>
  <scstep>
   <time name="dav">    3.20    3.21</time>
   <time name="total">    3.47    3.48</time>
   <energy>
    <i name="alphaZ">    105.52440745 </i>
    <i name="ewald">  -7265.47100206 </i>
    <i name="hartreedc">   -485.14340297 </i>
    <i name="XCdc">   -577.61230389 </i>
    <i name="pawpsdc">  27883.39439948 </i>
    <i name="pawaedc"> -26764.11231364 </i>
    <i name="eentropy">      0.00000000 </i>
    <i name="bandstr">    160.36337648 </i>
    <i name="atom">   6596.14994790 </i>
    <i name="e_fr_energy">   -346.90689126 </i>
    <i name="e_wo_entrp">   -346.90689126 </i>
    <i name="e_0_energy">   -346.90689126 </i>
   </energy>
  </scstep>
  <structure>
   <crystal>
    <varray name="basis" >
     <v>      10.93252578       0.00000000       0.00000000 </v>
     <v>       0.00000000      10.93252578       0.00000000 </v>
     <v>       0.00000000       0.00000000      10.93252578 </v>
    </varray>
    <i name="volume">   1306.65679237 </i>
    <varray name="rec_basis" >
     <v>       0.09147017       0.00000000       0.00000000 </v>
     <v>       0.00000000       0.09147017       0.00000000 </v>
     <v>       0.00000000       0.00000000       0.09147017 </v>
    </varray>
   </crystal>
   <varray name="positions" >
    <v>       0.44024411       0.43750000       0.43750000 </v>
    <v>       0.93750000       0.43750000       0.43750000 </v>
    <v>       0.43750000       0.93750000       0.43750000 </v>
    <v>       0.93750000       0.93750000       0.43750000 </v>
    <v>       0.43750000       0.43750000       0.93750000 </v>
    <v>       0.93750000       0.43750000       0.93750000 </v>
    <v>       0.43750000       0.93750000       0.93750000 </v>
    <v>       0.93750000       0.93750000       0.93750000 </v>
    <v>       0.43750000       0.18750000       0.18750000 </v>
    <v>       0.93750000       0.18750000       0.18750000 </v>
    <v>       0.43750000       0.68750000       0.18750000 </v>
    <v>       0.93750000       0.68750000       0.18750000 </v>
    <v>       0.43750000       0.18750000       0.68750000 </v>
    <v>       0.93750000       0.18750000       0.68750000 </v>
    <v>       0.43750000       0.68750000       0.68750000 </v>
    <v>       0.93750000       0.68750000       0.68750000 </v>
    <v>       0.18750000       0.43750000       0.18750000 </v>
    <v>       0.68750000       0.43750000       0.18750000 </v>
    <v>       0.18750000       0.93750000       0.18750000 </v>
    <v>       0.68750000       0.93750000       0.18750000 </v>
    <v>       0.18750000       0.43750000       0.68750000 </v>
    <v>       0.68750000       0.43750000       0.68750000 </v>
    <v>       0.18750000       0.93750000       0.68750000 </v>
    <v>       0.68750000       0.93750000       0.68750000 </v>
    <v>       0.18750000       0.18750000       0.43750000 </v>
    <v>       0.68750000       0.18750000       0.43750000 </v>
    <v>       0.18750000       0.68750000       0.43750000 </v>
    <v>       0.68750000       0.68750000       0.43750000 </v>
    <v>       0.18750000       0.18750000       0.93750000 </v>
    <v>       0.68750000       0.18750000       0.93750000 </v>
    <v>       0.18750000       0.68750000       0.93750000 </v>
    <v>       0.68750000       0.68750000       0.93750000 </v>
    <v>       0.06250000       0.06250000       0.06250000 </v>
    <v>       0.56250000       0.06250000       0.06250000 </v>
    <v>       0.06250000       0.56250000       0.06250000 </v>
    <v>       0.56250000       0.56250000       0.06250000 </v>
    <v>       0.06250000       0.06250000       0.56250000 </v>
    <v>       0.56250000       0.06250000       0.56250000 </v>
    <v>       0.06250000       0.56250000       0.56250000 </v>
    <v>       0.56250000       0.56250000       0.56250000 </v>
    <v>       0.06250000       0.31250000       0.31250000 </v>
    <v>       0.56250000       0.31250000       0.31250000 </v>
    <v>       0.06250000       0.81250000       0.31250000 </v>
    <v>       0.56250000       0.81250000       0.31250000 </v>
    <v>       0.06250000       0.31250000       0.81250000 </v>
    <v>       0.56250000       0.31250000       0.81250000 </v>
    <v>       0.06250000       0.81250000       0.81250000 </v>
    <v>       0.56250000       0.81250000       0.81250000 </v>
    <v>       0.31250000       0.06250000       0.31250000 </v>
    <v>       0.81250000       0.06250000       0.31250000 </v>
    <v>       0.31250000       0.56250000       0.31250000 </v>
    <v>       0.81250000       0.56250000       0.31250000 </v>
    <v>       0.31250000       0.06250000       0.81250000 </v>
    <v>       0.81250000       0.06524411       0.81250000 </v>
    <v>       0.31250000       0.56250000       0.81250000 </v>
    <v>       0.81250000       0.56250000       0.81250000 </v>
    <v>       0.31250000       0.31250000       0.06250000 </v>
    <v>       0.81250000       0.31250000       0.06250000 </v>
    <v>       0.31250000       0.81250000       0.06250000 </v>
    <v>       0.81250000       0.81250000       0.06250000 </v>
    <v>       0.31250000       0.31250000       0.56250000 </v>
    <v>       0.81250000       0.31250000       0.56250000 </v>
    <v>       0.31250000       0.81250000       0.56250000 </v>
    <v>       0.81250000       0.81250000       0.56250000 </v>
   </varray>
  </structure>
  <varray name="forces" >
   <v>      -0.38787233      -0.00054366      -0.00075688 </v>
   <v>      -0.00015937       0.00066233      -0.00063947 </v>
   <v>       0.00064379       0.00613557      -0.00067738 </v>
   <v>      -0.00142314      -0.00143095      -0.00088780 </v>
   <v>       0.00067728       0.00066211      -0.00070787 </v>
   <v>      -0.00108047      -0.00027826      -0.00090290 </v>
   <v>      -0.01243675      -0.00142785      -0.00124345 </v>
   <v>      -0.06037863       0.09307388      -0.06096306 </v>
   <v>      -0.01219737       0.00896743       0.00207358 </v>
   <v>       0.00118643      -0.00124973      -0.00069815 </v>
   <v>      -0.01202055       0.00212961      -0.00342239 </v>
   <v>       0.00065311       0.00085079      -0.00083510 </v>
   <v>      -0.01185065      -0.00413937       0.00145608 </v>
   <v>       0.06611105       0.09556924      -0.06587725 </v>
   <v>      -0.01228083      -0.00214938      -0.00342055 </v>
   <v>       0.00088490      -0.00050306      -0.00113802 </v>
   <v>       0.00639232      -0.00320835       0.00630641 </v>
   <v>       0.00651341      -0.00210617      -0.00504937 </v>
   <v>       0.00169030       0.00590687      -0.00118503 </v>
   <v>       0.00226623      -0.00166121       0.00273604 </v>
   <v>       0.00628214       0.00333217      -0.00485125 </v>
   <v>       0.00670732       0.00249199       0.00659267 </v>
   <v>       0.00190574      -0.00120189       0.00310751 </v>
   <v>       0.06198224       0.09330185       0.05910715 </v>
   <v>       0.00496009       0.01176652      -0.00198874 </v>
   <v>       0.00459044      -0.00716286      -0.00184607 </v>
   <v>       0.00489284      -0.00609616       0.00342501 </v>
   <v>       0.00515014       0.00630875       0.00337032 </v>
   <v>       0.00009244      -0.00333715       0.00098041 </v>
   <v>      -0.06508391       0.09765541       0.06587470 </v>
   <v>       0.00041560       0.00247970       0.00088418 </v>
   <v>       0.00011058      -0.00212258       0.00113937 </v>
   <v>       0.00212961      -0.01202055       0.00342239 </v>
   <v>       0.00896743      -0.01219737      -0.00207358 </v>
   <v>       0.00085079       0.00065311       0.00083510 </v>
   <v>      -0.00124973       0.00118643       0.00069815 </v>
   <v>      -0.00214938      -0.01228083       0.00342055 </v>
   <v>      -0.00413937      -0.01185065      -0.00145608 </v>
   <v>      -0.00050306       0.00088490       0.00113802 </v>
   <v>       0.09556924       0.06611105       0.06587725 </v>
   <v>      -0.00212258       0.00011058      -0.00113937 </v>
   <v>       0.09765541      -0.06508391      -0.06587470 </v>
   <v>       0.00247970       0.00041560      -0.00088418 </v>
   <v>      -0.00333715       0.00009244      -0.00098041 </v>
   <v>       0.00630875       0.00515014      -0.00337032 </v>
   <v>      -0.00716286       0.00459044       0.00184607 </v>
   <v>      -0.00609616       0.00489284      -0.00342501 </v>
   <v>       0.01176652       0.00496009       0.00198874 </v>
   <v>      -0.00142785      -0.01243675       0.00124345 </v>
   <v>       0.00066211       0.00067728       0.00070787 </v>
   <v>       0.09307388      -0.06037863       0.06096306 </v>
   <v>      -0.00027826      -0.00108047       0.00090290 </v>
   <v>       0.00613557       0.00064379       0.00067738 </v>
   <v>      -0.00054366      -0.38787233       0.00075688 </v>
   <v>      -0.00143095      -0.00142314       0.00088780 </v>
   <v>       0.00066233      -0.00015937       0.00063947 </v>
   <v>      -0.00166121       0.00226623      -0.00273604 </v>
   <v>      -0.00210617       0.00651341       0.00504937 </v>
   <v>       0.00590687       0.00169030       0.00118503 </v>
   <v>      -0.00320835       0.00639232      -0.00630641 </v>
   <v>       0.09330185       0.06198224      -0.05910715 </v>
   <v>       0.00249199       0.00670732      -0.00659267 </v>
   <v>      -0.00120189       0.00190574      -0.00310751 </v>
   <v>       0.00333217       0.00628214       0.00485125 </v>
  </varray>
  <varray name="stress" >
   <v>       0.00166625      -0.00000147      -0.33488203 </v>
   <v>      -0.00000147       0.00166625       0.33488203 </v>
   <v>      -0.33488198       0.33488198       0.02093206 </v>
  </varray>
  <energy>
   <i name="e_fr_energy">   -346.90689126 </i>
   <i name="e_wo_entrp">   -346.90689126 </i>
   <i name="e_0_energy">      0.00000000 </i>
  </energy>
  <time name="totalsc">   92.85   93.20</time>
  <eigenvalues>
   <array>
    <dimension dim="1">band</dimension>
    <dimension dim="2">kpoint</dimension>
    <dimension dim="3">spin</dimension>
    <field>eigene</field>
    <field>occ</field>
    <set>
     <set comment="spin 1">
      <set comment="kpoint 1">
       <r>   -5.9932    1.0000 </r>
       <r>   -5.4672    1.0000 </r>
       <r>   -5.4654    1.0000 </r>
       <r>   -5.4618    1.0000 </r>
       <r>   -4.9678    1.0000 </r>
       <r>   -4.9662    1.0000 </r>
       <r>   -4.9626    1.0000 </r>
       <r>   -4.5322    1.0000 </r>
       <r>   -4.4350    1.0000 </r>
       <r>   -4.4333    1.0000 </r>
       <r>   -4.4291    1.0000 </r>
       <r>   -4.0246    1.0000 </r>
       <r>   -4.0187    1.0000 </r>
       <r>   -4.0166    1.0000 </r>
       <r>   -4.0164    1.0000 </r>
       <r>   -4.0150    1.0000 </r>
       <r>   -4.0074    1.0000 </r>
       <r>   -3.8286    1.0000 </r>
       <r>   -3.8243    1.0000 </r>
       <r>   -3.8200    1.0000 </r>
       <r>   -3.3310    1.0000 </r>
       <r>   -3.3299    1.0000 </r>
       <r>   -3.3242    1.0000 </r>
       <r>   -2.9640    1.0000 </r>
       <r>   -2.9591    1.0000 </r>
       <r>   -2.9543    1.0000 </r>
       <r>   -2.7989    1.0000 </r>
       <r>   -2.7938    1.0000 </r>
       <r>   -2.7911    1.0000 </r>
       <r>   -2.7906    1.0000 </r>
       <r>   -2.7890    1.0000 </r>
       <r>   -2.7818    1.0000 </r>
       <r>   -1.2581    1.0000 </r>
       <r>   -1.2523    1.0000 </r>
       <r>   -1.2489    1.0000 </r>
       <r>   -1.2486    1.0000 </r>
       <r>   -1.2465    1.0000 </r>
       <r>   -1.2388    1.0000 </r>
       <r>   -1.1564    1.0000 </r>
       <r>   -1.1510    1.0000 </r>
       <r>   -1.1460    1.0000 </r>
       <r>   -1.0379    1.0000 </r>
       <r>   -1.0328    1.0000 </r>
       <r>   -1.0272    1.0000 </r>
       <r>   -0.9511    1.0000 </r>
       <r>   -0.9477    1.0000 </r>
       <r>   -0.9414    1.0000 </r>
       <r>   -0.2446    1.0000 </r>
       <r>   -0.1689    1.0000 </r>
       <r>   -0.1643    1.0000 </r>
       <r>   -0.1609    1.0000 </r>
       <r>   -0.1602    1.0000 </r>
       <r>   -0.1571    1.0000 </r>
       <r>   -0.1493    1.0000 </r>
       <r>    0.7098    1.0000 </r>
       <r>    0.7136    1.0000 </r>
       <r>    0.7194    1.0000 </r>
       <r>    1.0432    1.0000 </r>
       <r>    1.0469    1.0000 </r>
       <r>    1.0512    1.0000 </r>
       <r>    1.6524    1.0000 </r>
       <r>    1.6550    1.0000 </r>
       <r>    1.6558    1.0000 </r>
       <r>    1.6571    1.0000 </r>
       <r>    1.6597    1.0000 </r>
       <r>    1.6617    1.0000 </r>
       <r>    1.7136    1.0000 </r>
       <r>    1.7156    1.0000 </r>
       <r>    1.7191    1.0000 </r>
       <r>    2.2649    1.0000 </r>
       <r>    2.2678    1.0000 </r>
       <r>    2.2705    1.0000 </r>
       <r>    2.3662    1.0000 </r>
       <r>    2.3671    1.0000 </r>
       <r>    2.3693    1.0000 </r>
       <r>    2.3713    1.0000 </r>
       <r>    2.3744    1.0000 </r>
       <r>    2.3767    1.0000 </r>
       <r>    2.4212    1.0000 </r>
       <r>    2.4248    1.0000 </r>
       <r>    2.4291    1.0000 </r>
       <r>    2.7301    1.0000 </r>
       <r>    2.7325    1.0000 </r>
       <r>    2.7342    1.0000 </r>
       <r>    2.7345    1.0000 </r>
       <r>    2.7366    1.0000 </r>
       <r>    2.7417    1.0000 </r>
       <r>    2.9967    1.0000 </r>
       <r>    2.9988    1.0000 </r>
       <r>    3.0020    1.0000 </r>
       <r>    3.0100    1.0000 </r>
       <r>    3.0136    1.0000 </r>
       <r>    3.0171    1.0000 </r>
       <r>    3.3593    1.0000 </r>
       <r>    3.3623    1.0000 </r>
       <r>    3.3638    1.0000 </r>
       <r>    3.3806    1.0000 </r>
       <r>    3.3842    1.0000 </r>
       <r>    3.3888    1.0000 </r>
       <r>    3.4637    1.0000 </r>
       <r>    3.4660    1.0000 </r>
       <r>    3.4702    1.0000 </r>
       <r>    3.7348    1.0000 </r>
       <r>    3.7392    1.0000 </r>
       <r>    3.7402    1.0000 </r>
       <r>    3.7413    1.0000 </r>
       <r>    3.7425    1.0000 </r>
       <r>    3.7493    1.0000 </r>
       <r>    3.7774    1.0000 </r>
       <r>    3.7800    1.0000 </r>
       <r>    3.7851    1.0000 </r>
       <r>    4.0405    1.0000 </r>
       <r>    4.0948    1.0000 </r>
       <r>    4.0976    1.0000 </r>
       <r>    4.1014    1.0000 </r>
       <r>    4.3376    1.0000 </r>
       <r>    4.3404    1.0000 </r>
       <r>    4.3449    1.0000 </r>
       <r>    4.4021    1.0000 </r>
       <r>    4.4053    1.0000 </r>
       <r>    4.4105    1.0000 </r>
       <r>    4.5588    1.0000 </r>
       <r>    4.5671    1.0000 </r>
       <r>    4.8654    1.0000 </r>
       <r>    4.8694    1.0000 </r>
       <r>    4.8754    1.0000 </r>
       <r>    5.3451    1.0000 </r>
       <r>    5.3544    1.0000 </r>
       <r>    6.5603    0.0000 </r>
       <r>    6.5628    0.0000 </r>
       <r>    6.5670    0.0000 </r>
       <r>    6.9992    0.0000 </r>
       <r>    7.0043    0.0000 </r>
       <r>    7.0098    0.0000 </r>
       <r>    7.2337    0.0000 </r>
       <r>    7.4860    0.0000 </r>
       <r>    7.4907    0.0000 </r>
       <r>    7.4955    0.0000 </r>
       <r>    7.6152    0.0000 </r>
       <r>    7.6196    0.0000 </r>
       <r>    7.6239    0.0000 </r>
       <r>    7.7759    0.0000 </r>
       <r>    7.7801    0.0000 </r>
       <r>    7.7830    0.0000 </r>
       <r>    7.7984    0.0000 </r>
       <r>    7.8000    0.0000 </r>
       <r>    7.8055    0.0000 </r>
       <r>    8.0243    0.0000 </r>
       <r>    8.0281    0.0000 </r>
       <r>    8.0301    0.0000 </r>
       <r>    8.0302    0.0000 </r>
       <r>    8.0327    0.0000 </r>
       <r>    8.0379    0.0000 </r>
       <r>    8.0813    0.0000 </r>
       <r>    8.2915    0.0000 </r>
       <r>    8.2949    0.0000 </r>
       <r>    8.2985    0.0000 </r>
       <r>    8.4940    0.0000 </r>
       <r>    8.4999    0.0000 </r>
       <r>    8.5019    0.0000 </r>
       <r>    8.5037    0.0000 </r>
       <r>    8.5114    0.0000 </r>
       <r>    8.5253    0.0000 </r>
       <r>    8.5525    0.0000 </r>
      </set>
      <set comment="kpoint 2">
       <r>   -5.9931    1.0000 </r>
       <r>   -5.4679    1.0000 </r>
       <r>   -5.4652    1.0000 </r>
       <r>   -5.4616    1.0000 </r>
       <r>   -4.9682    1.0000 </r>
       <r>   -4.9659    1.0000 </r>
       <r>   -4.9623    1.0000 </r>
       <r>   -4.5313    1.0000 </r>
       <r>   -4.4354    1.0000 </r>
       <r>   -4.4326    1.0000 </r>
       <r>   -4.4283    1.0000 </r>
       <r>   -4.0242    1.0000 </r>
       <r>   -4.0205    1.0000 </r>
       <r>   -4.0165    1.0000 </r>
       <r>   -4.0159    1.0000 </r>
       <r>   -4.0135    1.0000 </r>
       <r>   -4.0110    1.0000 </r>
       <r>   -3.8293    1.0000 </r>
       <r>   -3.8238    1.0000 </r>
       <r>   -3.8217    1.0000 </r>
       <r>   -3.3302    1.0000 </r>
       <r>   -3.3276    1.0000 </r>
       <r>   -3.3218    1.0000 </r>
       <r>   -2.9651    1.0000 </r>
       <r>   -2.9577    1.0000 </r>
       <r>   -2.9558    1.0000 </r>
       <r>   -2.7991    1.0000 </r>
       <r>   -2.7930    1.0000 </r>
       <r>   -2.7910    1.0000 </r>
       <r>   -2.7906    1.0000 </r>
       <r>   -2.7871    1.0000 </r>
       <r>   -2.7860    1.0000 </r>
       <r>   -1.2580    1.0000 </r>
       <r>   -1.2503    1.0000 </r>
       <r>   -1.2486    1.0000 </r>
       <r>   -1.2483    1.0000 </r>
       <r>   -1.2438    1.0000 </r>
       <r>   -1.2413    1.0000 </r>
       <r>   -1.1562    1.0000 </r>
       <r>   -1.1485    1.0000 </r>
       <r>   -1.1464    1.0000 </r>
       <r>   -1.0345    1.0000 </r>
       <r>   -1.0321    1.0000 </r>
       <r>   -1.0264    1.0000 </r>
       <r>   -0.9581    1.0000 </r>
       <r>   -0.9477    1.0000 </r>
       <r>   -0.9465    1.0000 </r>
       <r>   -0.2481    1.0000 </r>
       <r>   -0.1672    1.0000 </r>
       <r>   -0.1613    1.0000 </r>
       <r>   -0.1604    1.0000 </r>
       <r>   -0.1600    1.0000 </r>
       <r>   -0.1533    1.0000 </r>
       <r>   -0.1501    1.0000 </r>
       <r>    0.7056    1.0000 </r>
       <r>    0.7138    1.0000 </r>
       <r>    0.7166    1.0000 </r>
       <r>    1.0437    1.0000 </r>
       <r>    1.0476    1.0000 </r>
       <r>    1.0501    1.0000 </r>
       <r>    1.6516    1.0000 </r>
       <r>    1.6543    1.0000 </r>
       <r>    1.6570    1.0000 </r>
       <r>    1.6576    1.0000 </r>
       <r>    1.6591    1.0000 </r>
       <r>    1.6624    1.0000 </r>
       <r>    1.7145    1.0000 </r>
       <r>    1.7177    1.0000 </r>
       <r>    1.7198    1.0000 </r>
       <r>    2.2632    1.0000 </r>
       <r>    2.2665    1.0000 </r>
       <r>    2.2679    1.0000 </r>
       <r>    2.3672    1.0000 </r>
       <r>    2.3692    1.0000 </r>
       <r>    2.3704    1.0000 </r>
       <r>    2.3720    1.0000 </r>
       <r>    2.3745    1.0000 </r>
       <r>    2.3787    1.0000 </r>
       <r>    2.4230    1.0000 </r>
       <r>    2.4282    1.0000 </r>
       <r>    2.4306    1.0000 </r>
       <r>    2.7300    1.0000 </r>
       <r>    2.7321    1.0000 </r>
       <r>    2.7343    1.0000 </r>
       <r>    2.7349    1.0000 </r>
       <r>    2.7364    1.0000 </r>
       <r>    2.7410    1.0000 </r>
       <r>    2.9983    1.0000 </r>
       <r>    2.9997    1.0000 </r>
       <r>    3.0029    1.0000 </r>
       <r>    3.0122    1.0000 </r>
       <r>    3.0148    1.0000 </r>
       <r>    3.0173    1.0000 </r>
       <r>    3.3579    1.0000 </r>
       <r>    3.3592    1.0000 </r>
       <r>    3.3629    1.0000 </r>
       <r>    3.3774    1.0000 </r>
       <r>    3.3825    1.0000 </r>
       <r>    3.3844    1.0000 </r>
       <r>    3.4658    1.0000 </r>
       <r>    3.4667    1.0000 </r>
       <r>    3.4707    1.0000 </r>
       <r>    3.7313    1.0000 </r>
       <r>    3.7346    1.0000 </r>
       <r>    3.7402    1.0000 </r>
       <r>    3.7411    1.0000 </r>
       <r>    3.7421    1.0000 </r>
       <r>    3.7428    1.0000 </r>
       <r>    3.7798    1.0000 </r>
       <r>    3.7808    1.0000 </r>
       <r>    3.7854    1.0000 </r>
       <r>    4.0368    1.0000 </r>
       <r>    4.0978    1.0000 </r>
       <r>    4.0989    1.0000 </r>
       <r>    4.1037    1.0000 </r>
       <r>    4.3407    1.0000 </r>
       <r>    4.3415    1.0000 </r>
       <r>    4.3466    1.0000 </r>
       <r>    4.3951    1.0000 </r>
       <r>    4.4038    1.0000 </r>
       <r>    4.4051    1.0000 </r>
       <r>    4.5616    1.0000 </r>
       <r>    4.5665    1.0000 </r>
       <r>    4.8697    1.0000 </r>
       <r>    4.8707    1.0000 </r>
       <r>    4.8776    1.0000 </r>
       <r>    5.3493    1.0000 </r>
       <r>    5.3547    1.0000 </r>
       <r>    6.5617    0.0000 </r>
       <r>    6.5653    0.0000 </r>
       <r>    6.5680    0.0000 </r>
       <r>    7.0011    0.0000 </r>
       <r>    7.0033    0.0000 </r>
       <r>    7.0110    0.0000 </r>
       <r>    7.2352    0.0000 </r>
       <r>    7.4885    0.0000 </r>
       <r>    7.4912    0.0000 </r>
       <r>    7.4972    0.0000 </r>
       <r>    7.6150    0.0000 </r>
       <r>    7.6170    0.0000 </r>
       <r>    7.6225    0.0000 </r>
       <r>    7.7776    0.0000 </r>
       <r>    7.7781    0.0000 </r>
       <r>    7.7843    0.0000 </r>
       <r>    7.7988    0.0000 </r>
       <r>    7.8007    0.0000 </r>
       <r>    7.8068    0.0000 </r>
       <r>    8.0233    0.0000 </r>
       <r>    8.0260    0.0000 </r>
       <r>    8.0274    0.0000 </r>
       <r>    8.0307    0.0000 </r>
       <r>    8.0315    0.0000 </r>
       <r>    8.0340    0.0000 </r>
       <r>    8.0834    0.0000 </r>
       <r>    8.2928    0.0000 </r>
       <r>    8.2939    0.0000 </r>
       <r>    8.2991    0.0000 </r>
       <r>    8.4948    0.0000 </r>
       <r>    8.4969    0.0000 </r>
       <r>    8.5023    0.0000 </r>
       <r>    8.5046    0.0000 </r>
       <r>    8.5117    0.0000 </r>
       <r>    8.5260    0.0000 </r>
       <r>    8.5412    0.0000 </r>
      </set>
      <set comment="kpoint 3">
       <r>   -5.9932    1.0000 </r>
       <r>   -5.4679    1.0000 </r>
       <r>   -5.4656    1.0000 </r>
       <r>   -5.4604    1.0000 </r>
       <r>   -4.9688    1.0000 </r>
       <r>   -4.9664    1.0000 </r>
       <r>   -4.9615    1.0000 </r>
       <r>   -4.5333    1.0000 </r>
       <r>   -4.4363    1.0000 </r>
       <r>   -4.4334    1.0000 </r>
       <r>   -4.4286    1.0000 </r>
       <r>   -4.0222    1.0000 </r>
       <r>   -4.0192    1.0000 </r>
       <r>   -4.0175    1.0000 </r>
       <r>   -4.0172    1.0000 </r>
       <r>   -4.0155    1.0000 </r>
       <r>   -4.0043    1.0000 </r>
       <r>   -3.8270    1.0000 </r>
       <r>   -3.8248    1.0000 </r>
       <r>   -3.8193    1.0000 </r>
       <r>   -3.3348    1.0000 </r>
       <r>   -3.3295    1.0000 </r>
       <r>   -3.3260    1.0000 </r>
       <r>   -2.9623    1.0000 </r>
       <r>   -2.9608    1.0000 </r>
       <r>   -2.9534    1.0000 </r>
       <r>   -2.7956    1.0000 </r>
       <r>   -2.7937    1.0000 </r>
       <r>   -2.7924    1.0000 </r>
       <r>   -2.7919    1.0000 </r>
       <r>   -2.7897    1.0000 </r>
       <r>   -2.7800    1.0000 </r>
       <r>   -1.2552    1.0000 </r>
       <r>   -1.2513    1.0000 </r>
       <r>   -1.2510    1.0000 </r>
       <r>   -1.2495    1.0000 </r>
       <r>   -1.2469    1.0000 </r>
       <r>   -1.2419    1.0000 </r>
       <r>   -1.1560    1.0000 </r>
       <r>   -1.1534    1.0000 </r>
       <r>   -1.1463    1.0000 </r>
       <r>   -1.0386    1.0000 </r>
       <r>   -1.0332    1.0000 </r>
       <r>   -1.0310    1.0000 </r>
       <r>   -0.9483    1.0000 </r>
       <r>   -0.9470    1.0000 </r>
       <r>   -0.9326    1.0000 </r>
       <r>   -0.2411    1.0000 </r>
       <r>   -0.1694    1.0000 </r>
       <r>   -0.1642    1.0000 </r>
       <r>   -0.1627    1.0000 </r>
       <r>   -0.1609    1.0000 </r>
       <r>   -0.1588    1.0000 </r>
       <r>   -0.1531    1.0000 </r>
       <r>    0.7118    1.0000 </r>
       <r>    0.7142    1.0000 </r>
       <r>    0.7238    1.0000 </r>
       <r>    1.0441    1.0000 </r>
       <r>    1.0466    1.0000 </r>
       <r>    1.0504    1.0000 </r>
       <r>    1.6525    1.0000 </r>
       <r>    1.6544    1.0000 </r>
       <r>    1.6568    1.0000 </r>
       <r>    1.6573    1.0000 </r>
       <r>    1.6589    1.0000 </r>
       <r>    1.6607    1.0000 </r>
       <r>    1.7121    1.0000 </r>
       <r>    1.7152    1.0000 </r>
       <r>    1.7181    1.0000 </r>
       <r>    2.2676    1.0000 </r>
       <r>    2.2683    1.0000 </r>
       <r>    2.2728    1.0000 </r>
       <r>    2.3639    1.0000 </r>
       <r>    2.3650    1.0000 </r>
       <r>    2.3696    1.0000 </r>
       <r>    2.3710    1.0000 </r>
       <r>    2.3734    1.0000 </r>
       <r>    2.3743    1.0000 </r>
       <r>    2.4208    1.0000 </r>
       <r>    2.4217    1.0000 </r>
       <r>    2.4266    1.0000 </r>
       <r>    2.7301    1.0000 </r>
       <r>    2.7333    1.0000 </r>
       <r>    2.7344    1.0000 </r>
       <r>    2.7354    1.0000 </r>
       <r>    2.7355    1.0000 </r>
       <r>    2.7418    1.0000 </r>
       <r>    2.9958    1.0000 </r>
       <r>    2.9989    1.0000 </r>
       <r>    2.9995    1.0000 </r>
       <r>    3.0100    1.0000 </r>
       <r>    3.0122    1.0000 </r>
       <r>    3.0150    1.0000 </r>
       <r>    3.3612    1.0000 </r>
       <r>    3.3625    1.0000 </r>
       <r>    3.3678    1.0000 </r>
       <r>    3.3840    1.0000 </r>
       <r>    3.3851    1.0000 </r>
       <r>    3.3930    1.0000 </r>
       <r>    3.4631    1.0000 </r>
       <r>    3.4662    1.0000 </r>
       <r>    3.4672    1.0000 </r>
       <r>    3.7392    1.0000 </r>
       <r>    3.7401    1.0000 </r>
       <r>    3.7405    1.0000 </r>
       <r>    3.7437    1.0000 </r>
       <r>    3.7438    1.0000 </r>
       <r>    3.7553    1.0000 </r>
       <r>    3.7769    1.0000 </r>
       <r>    3.7801    1.0000 </r>
       <r>    3.7818    1.0000 </r>
       <r>    4.0443    1.0000 </r>
       <r>    4.0930    1.0000 </r>
       <r>    4.0970    1.0000 </r>
       <r>    4.0975    1.0000 </r>
       <r>    4.3362    1.0000 </r>
       <r>    4.3405    1.0000 </r>
       <r>    4.3408    1.0000 </r>
       <r>    4.4059    1.0000 </r>
       <r>    4.4065    1.0000 </r>
       <r>    4.4186    1.0000 </r>
       <r>    4.5593    1.0000 </r>
       <r>    4.5642    1.0000 </r>
       <r>    4.8636    1.0000 </r>
       <r>    4.8693    1.0000 </r>
       <r>    4.8695    1.0000 </r>
       <r>    5.3448    1.0000 </r>
       <r>    5.3501    1.0000 </r>
       <r>    6.5597    0.0000 </r>
       <r>    6.5608    0.0000 </r>
       <r>    6.5649    0.0000 </r>
       <r>    7.0000    0.0000 </r>
       <r>    7.0043    0.0000 </r>
       <r>    7.0068    0.0000 </r>
       <r>    7.2323    0.0000 </r>
       <r>    7.4857    0.0000 </r>
       <r>    7.4898    0.0000 </r>
       <r>    7.4921    0.0000 </r>
       <r>    7.6165    0.0000 </r>
       <r>    7.6222    0.0000 </r>
       <r>    7.6241    0.0000 </r>
       <r>    7.7751    0.0000 </r>
       <r>    7.7811    0.0000 </r>
       <r>    7.7814    0.0000 </r>
       <r>    7.7982    0.0000 </r>
       <r>    7.8013    0.0000 </r>
       <r>    7.8023    0.0000 </r>
       <r>    8.0261    0.0000 </r>
       <r>    8.0297    0.0000 </r>
       <r>    8.0304    0.0000 </r>
       <r>    8.0306    0.0000 </r>
       <r>    8.0372    0.0000 </r>
       <r>    8.0396    0.0000 </r>
       <r>    8.0790    0.0000 </r>
       <r>    8.2919    0.0000 </r>
       <r>    8.2960    0.0000 </r>
       <r>    8.2963    0.0000 </r>
       <r>    8.4920    0.0000 </r>
       <r>    8.5006    0.0000 </r>
       <r>    8.5016    0.0000 </r>
       <r>    8.5049    0.0000 </r>
       <r>    8.5108    0.0000 </r>
       <r>    8.5204    0.0000 </r>
       <r>    8.5440    0.0000 </r>
      </set>
     </set>
    </set>
   </array>
  </eigenvalues>
  <separator name="orbital magnetization" >
   <v name="MAGDIPOLOUT">      0.00000000      0.00000000      0.00000000</v>
  </separator>
  <dos>
   <i name="efermi">      5.60306234 </i>
   <total>
    <array>
     <dimension dim="1">gridpoints</dimension>
     <dimension dim="2">spin</dimension>
     <field>energy</field>
     <field>total</field>
     <field>integrated</field>
     <set>
      <set comment="spin 1">
       <r>    -6.7205     0.0000     0.0000 </r>
       <r>    -6.6672     0.0000     0.0000 </r>
       <r>    -6.6138     0.0000     0.0000 </r>
       <r>    -6.5605     0.0000     0.0000 </r>
       <r>    -6.5072     0.0000     0.0000 </r>
       <r>    -6.4538     0.0000     0.0000 </r>
       <r>    -6.4005     0.0000     0.0000 </r>
       <r>    -6.3472     0.0000     0.0000 </r>
       <r>    -6.2938     0.0000     0.0000 </r>
       <r>    -6.2405     0.0000     0.0000 </r>
       <r>    -6.1872     0.0000     0.0000 </r>
       <r>    -6.1338     0.0013     0.0001 </r>
       <r>    -6.0805     0.2519     0.0135 </r>
       <r>    -6.0272     6.0502     0.3362 </r>
       <r>    -5.9738    20.2364     1.4155 </r>
       <r>    -5.9205    10.2123     1.9602 </r>
       <r>    -5.8672     0.7403     1.9996 </r>
       <r>    -5.8138     0.0068     2.0000 </r>
       <r>    -5.7605     0.0000     2.0000 </r>
       <r>    -5.7072     0.0000     2.0000 </r>
       <r>    -5.6538     0.0000     2.0000 </r>
       <r>    -5.6005     0.0072     2.0004 </r>
       <r>    -5.5472     1.1240     2.0603 </r>
       <r>    -5.4938    22.0670     3.2373 </r>
       <r>    -5.4405    61.5441     6.5197 </r>
       <r>    -5.3872    26.1479     7.9143 </r>
       <r>    -5.3338     1.5951     7.9993 </r>
       <r>    -5.2805     0.0124     8.0000 </r>
       <r>    -5.2272     0.0000     8.0000 </r>
       <r>    -5.1738     0.0000     8.0000 </r>
       <r>    -5.1205     0.0007     8.0000 </r>
       <r>    -5.0672     0.2319     8.0124 </r>
       <r>    -5.0138     9.4971     8.5189 </r>
       <r>    -4.9605    52.8777    11.3391 </r>
       <r>    -4.9071    44.2894    13.7013 </r>
       <r>    -4.8538     5.5096    13.9951 </r>
       <r>    -4.8005     0.0912    14.0000 </r>
       <r>    -4.7471     0.0002    14.0000 </r>
       <r>    -4.6938     0.0001    14.0000 </r>
       <r>    -4.6405     0.0414    14.0022 </r>
       <r>    -4.5871     2.2231    14.1208 </r>
       <r>    -4.5338    16.0748    14.9781 </r>
       <r>    -4.4805    26.3574    16.3839 </r>
       <r>    -4.4271    55.6832    19.3537 </r>
       <r>    -4.3738    44.0899    21.7052 </r>
       <r>    -4.3205     5.4374    21.9952 </r>
       <r>    -4.2671     0.0895    22.0000 </r>
       <r>    -4.2138     0.0002    22.0000 </r>
       <r>    -4.1605     0.0061    22.0003 </r>
       <r>    -4.1071     1.2401    22.0665 </r>
       <r>    -4.0538    32.0188    23.7742 </r>
       <r>    -4.0005   118.1217    30.0741 </r>
       <r>    -3.9471    67.7489    33.6875 </r>
       <r>    -3.8938     8.6302    34.1477 </r>
       <r>    -3.8405    33.7639    35.9485 </r>
       <r>    -3.7871    59.3700    39.1150 </r>
       <r>    -3.7338    15.9858    39.9676 </r>
       <r>    -3.6805     0.6049    39.9998 </r>
       <r>    -3.6271     0.0029    40.0000 </r>
       <r>    -3.5738     0.0000    40.0000 </r>
       <r>    -3.5205     0.0000    40.0000 </r>
       <r>    -3.4671     0.0053    40.0003 </r>
       <r>    -3.4138     0.9049    40.0485 </r>
       <r>    -3.3604    19.6903    41.0987 </r>
       <r>    -3.3071    60.9524    44.3496 </r>
       <r>    -3.2538    28.9278    45.8924 </r>
       <r>    -3.2004     1.9992    45.9990 </r>
       <r>    -3.1471     0.0179    46.0000 </r>
       <r>    -3.0938     0.0087    46.0005 </r>
       <r>    -3.0404     1.2469    46.0670 </r>
       <r>    -2.9871    23.0470    47.2962 </r>
       <r>    -2.9338    61.4506    50.5736 </r>
       <r>    -2.8804    26.5856    51.9915 </r>
       <r>    -2.8271    34.9947    53.8579 </r>
       <r>    -2.7738   119.0241    60.2060 </r>
       <r>    -2.7204    65.6652    63.7082 </r>
       <r>    -2.6671     5.4108    63.9968 </r>
       <r>    -2.6138     0.0597    64.0000 </r>
       <r>    -2.5604     0.0001    64.0000 </r>
       <r>    -2.5071     0.0000    64.0000 </r>
       <r>    -2.4538     0.0000    64.0000 </r>
       <r>    -2.4004     0.0000    64.0000 </r>
       <r>    -2.3471     0.0000    64.0000 </r>
       <r>    -2.2938     0.0000    64.0000 </r>
       <r>    -2.2404     0.0000    64.0000 </r>
       <r>    -2.1871     0.0000    64.0000 </r>
       <r>    -2.1338     0.0000    64.0000 </r>
       <r>    -2.0804     0.0000    64.0000 </r>
       <r>    -2.0271     0.0000    64.0000 </r>
       <r>    -1.9738     0.0000    64.0000 </r>
       <r>    -1.9204     0.0000    64.0000 </r>
       <r>    -1.8671     0.0000    64.0000 </r>
       <r>    -1.8138     0.0000    64.0000 </r>
       <r>    -1.7604     0.0000    64.0000 </r>
       <r>    -1.7071     0.0000    64.0000 </r>
       <r>    -1.6537     0.0000    64.0000 </r>
       <r>    -1.6004     0.0000    64.0000 </r>
       <r>    -1.5471     0.0000    64.0000 </r>
       <r>    -1.4937     0.0000    64.0000 </r>
       <r>    -1.4404     0.0000    64.0000 </r>
       <r>    -1.3871     0.0124    64.0007 </r>
       <r>    -1.3337     1.9641    64.1054 </r>
       <r>    -1.2804    40.4999    66.2655 </r>
       <r>    -1.2271   123.3404    72.8437 </r>
       <r>    -1.1737    84.7217    77.3623 </r>
       <r>    -1.1204    65.8448    80.8741 </r>
       <r>    -1.0671    38.8646    82.9469 </r>
       <r>    -1.0137    64.7009    86.3977 </r>
       <r>    -0.9604    67.2090    89.9823 </r>
       <r>    -0.9071    60.1895    93.1924 </r>
       <r>    -0.8537    14.6025    93.9713 </r>
       <r>    -0.8004     0.5363    93.9999 </r>
       <r>    -0.7471     0.0026    94.0000 </r>
       <r>    -0.6937     0.0000    94.0000 </r>
       <r>    -0.6404     0.0000    94.0000 </r>
       <r>    -0.5871     0.0000    94.0000 </r>
       <r>    -0.5337     0.0000    94.0000 </r>
       <r>    -0.4804     0.0000    94.0000 </r>
       <r>    -0.4271     0.0000    94.0000 </r>
       <r>    -0.3737     0.0050    94.0003 </r>
       <r>    -0.3204     0.6034    94.0325 </r>
       <r>    -0.2671     9.5664    94.5427 </r>
       <r>    -0.2137    35.2586    96.4232 </r>
       <r>    -0.1604   103.5840   101.9478 </r>
       <r>    -0.1071    97.8789   107.1681 </r>
       <r>    -0.0537    15.2616   107.9820 </r>
       <r>    -0.0004     0.3358   107.9999 </r>
       <r>     0.0530     0.0009   108.0000 </r>
       <r>     0.1063     0.0000   108.0000 </r>
       <r>     0.1596     0.0000   108.0000 </r>
       <r>     0.2130     0.0000   108.0000 </r>
       <r>     0.2663     0.0000   108.0000 </r>
       <r>     0.3196     0.0000   108.0000 </r>
       <r>     0.3730     0.0000   108.0000 </r>
       <r>     0.4263     0.0000   108.0000 </r>
       <r>     0.4796     0.0000   108.0000 </r>
       <r>     0.5330     0.0000   108.0000 </r>
       <r>     0.5863     0.0186   108.0010 </r>
       <r>     0.6396     2.0252   108.1090 </r>
       <r>     0.6930    28.8974   109.6502 </r>
       <r>     0.7463    60.7735   112.8916 </r>
       <r>     0.7996    19.8410   113.9498 </r>
       <r>     0.8530     0.9363   113.9997 </r>
       <r>     0.9063     0.0098   114.0002 </r>
       <r>     0.9596     0.7674   114.0411 </r>
       <r>     1.0130    18.1494   115.0091 </r>
       <r>     1.0663    60.5078   118.2363 </r>
       <r>     1.1196    30.7715   119.8775 </r>
       <r>     1.1730     2.2758   119.9988 </r>
       <r>     1.2263     0.0218   120.0000 </r>
       <r>     1.2796     0.0000   120.0000 </r>
       <r>     1.3330     0.0000   120.0000 </r>
       <r>     1.3863     0.0000   120.0000 </r>
       <r>     1.4396     0.0000   120.0000 </r>
       <r>     1.4930     0.0004   120.0000 </r>
       <r>     1.5463     0.2056   120.0110 </r>
       <r>     1.5996    11.8491   120.6430 </r>
       <r>     1.6530    94.7435   125.6960 </r>
       <r>     1.7063   143.7112   133.3608 </r>
       <r>     1.7597    74.1967   137.3180 </r>
       <r>     1.8130    12.4316   137.9811 </r>
       <r>     1.8663     0.3539   137.9999 </r>
       <r>     1.9197     0.0013   138.0000 </r>
       <r>     1.9730     0.0000   138.0000 </r>
       <r>     2.0263     0.0000   138.0000 </r>
       <r>     2.0797     0.0000   138.0000 </r>
       <r>     2.1330     0.0081   138.0004 </r>
       <r>     2.1863     1.2115   138.0650 </r>
       <r>     2.2397    22.9239   139.2877 </r>
       <r>     2.2930    64.8388   142.7458 </r>
       <r>     2.3463    78.8198   146.9496 </r>
       <r>     2.3997   149.4237   154.9191 </r>
       <r>     2.4530   106.1059   160.5781 </r>
       <r>     2.5063    25.3943   161.9325 </r>
       <r>     2.5597     1.2565   161.9995 </r>
       <r>     2.6130     0.0757   162.0036 </r>
       <r>     2.6663     5.9537   162.3211 </r>
       <r>     2.7197    69.0903   166.0060 </r>
       <r>     2.7730   117.9430   172.2964 </r>
       <r>     2.8263    30.8039   173.9393 </r>
       <r>     2.8797     1.1829   174.0024 </r>
       <r>     2.9330     4.7267   174.2545 </r>
       <r>     2.9863    60.4606   177.4791 </r>
       <r>     3.0397   119.5799   183.8569 </r>
       <r>     3.0930    38.3198   185.9006 </r>
       <r>     3.1463     1.8512   185.9994 </r>
       <r>     3.1997     0.0123   186.0000 </r>
       <r>     3.2530     0.1324   186.0071 </r>
       <r>     3.3063     8.0552   186.4367 </r>
       <r>     3.3597    72.8071   190.3198 </r>
       <r>     3.4130   119.1971   196.6771 </r>
       <r>     3.4664    79.3279   200.9080 </r>
       <r>     3.5197    50.4082   203.5965 </r>
       <r>     3.5730     7.4144   203.9920 </r>
       <r>     3.6264     0.2953   204.0077 </r>
       <r>     3.6797     9.6279   204.5212 </r>
       <r>     3.7330    92.3231   209.4452 </r>
       <r>     3.7864   162.9343   218.1352 </r>
       <r>     3.8397    66.3495   221.6739 </r>
       <r>     3.8930     6.0241   221.9952 </r>
       <r>     3.9464     0.2386   222.0079 </r>
       <r>     3.9997     4.8385   222.2660 </r>
       <r>     4.0530    30.4749   223.8914 </r>
       <r>     4.1064    67.6420   227.4990 </r>
       <r>     4.1597    42.2785   229.7539 </r>
       <r>     4.2130     4.5654   229.9974 </r>
       <r>     4.2664     2.0460   230.1065 </r>
       <r>     4.3197    29.7345   231.6924 </r>
       <r>     4.3730    80.2891   235.9746 </r>
       <r>     4.4264    80.1777   240.2508 </r>
       <r>     4.4797    31.3072   241.9205 </r>
       <r>     4.5330    16.4858   242.7998 </r>
       <r>     4.5864    40.9149   244.9820 </r>
       <r>     4.6397    17.9384   245.9387 </r>
       <r>     4.6930     1.1401   245.9995 </r>
       <r>     4.7464     0.0379   246.0015 </r>
       <r>     4.7997     2.6728   246.1441 </r>
       <r>     4.8530    32.8719   247.8973 </r>
       <r>     4.9064    59.6185   251.0770 </r>
       <r>     4.9597    16.6427   251.9646 </r>
       <r>     5.0131     0.6600   251.9998 </r>
       <r>     5.0664     0.0033   252.0000 </r>
       <r>     5.1197     0.0000   252.0000 </r>
       <r>     5.1731     0.0000   252.0000 </r>
       <r>     5.2264     0.0198   252.0011 </r>
       <r>     5.2797     1.8250   252.0984 </r>
       <r>     5.3331    22.1357   253.2790 </r>
       <r>     5.3864    39.6548   255.3940 </r>
       <r>     5.4397    10.9336   255.9771 </r>
       <r>     5.4931     0.4274   255.9999 </r>
       <r>     5.5464     0.0021   256.0000 </r>
       <r>     5.5997     0.0000   256.0000 </r>
       <r>     5.6531     0.0000   256.0000 </r>
       <r>     5.7064     0.0000   256.0000 </r>
       <r>     5.7597     0.0000   256.0000 </r>
       <r>     5.8131     0.0000   256.0000 </r>
       <r>     5.8664     0.0000   256.0000 </r>
       <r>     5.9197     0.0000   256.0000 </r>
       <r>     5.9731     0.0000   256.0000 </r>
       <r>     6.0264     0.0000   256.0000 </r>
       <r>     6.0797     0.0000   256.0000 </r>
       <r>     6.1331     0.0000   256.0000 </r>
       <r>     6.1864     0.0000   256.0000 </r>
       <r>     6.2397     0.0000   256.0000 </r>
       <r>     6.2931     0.0000   256.0000 </r>
       <r>     6.3464     0.0000   256.0000 </r>
       <r>     6.3997     0.0002   256.0000 </r>
       <r>     6.4531     0.1049   256.0056 </r>
       <r>     6.5064     5.9807   256.3246 </r>
       <r>     6.5597    45.5678   258.7549 </r>
       <r>     6.6131    51.7779   261.5165 </r>
       <r>     6.6664     8.8594   261.9890 </r>
       <r>     6.7198     0.2062   262.0000 </r>
       <r>     6.7731     0.0006   262.0000 </r>
       <r>     6.8264     0.0000   262.0000 </r>
       <r>     6.8798     0.0257   262.0014 </r>
       <r>     6.9331     2.5047   262.1350 </r>
       <r>     6.9864    31.9525   263.8391 </r>
       <r>     7.0398    59.9742   267.0378 </r>
       <r>     7.0931    17.3263   267.9619 </r>
       <r>     7.1464     0.9654   268.0134 </r>
       <r>     7.1998     6.0692   268.3371 </r>
       <r>     7.2531    20.2345   269.4163 </r>
       <r>     7.3064    10.1983   269.9602 </r>
       <r>     7.3598     0.7522   270.0003 </r>
       <r>     7.4131     1.6246   270.0870 </r>
       <r>     7.4664    26.1864   271.4836 </r>
       <r>     7.5198    61.6808   274.7733 </r>
       <r>     7.5731    32.5882   276.5114 </r>
       <r>     7.6264    55.2781   279.4596 </r>
       <r>     7.6798    42.8684   281.7460 </r>
       <r>     7.7331    18.4193   282.7283 </r>
       <r>     7.7864    89.1053   287.4807 </r>
       <r>     7.8398   101.5034   292.8943 </r>
       <r>     7.8931    20.1206   293.9675 </r>
       <r>     7.9464     2.6563   294.1091 </r>
       <r>     7.9998    41.9673   296.3474 </r>
       <r>     8.0531   129.7658   303.2684 </r>
       <r>     8.1064    76.0596   307.3250 </r>
       <r>     8.1598    12.1354   307.9722 </r>
       <r>     8.2131     1.6951   308.0627 </r>
       <r>     8.2664    22.5124   309.2633 </r>
       <r>     8.3198    61.5853   312.5480 </r>
       <r>     8.3731    25.7079   313.9191 </r>
       <r>     8.4265     4.8815   314.1794 </r>
       <r>     8.4798    51.6535   316.9343 </r>
       <r>     8.5331   131.5407   323.9500 </r>
       <r>     8.5865    67.5350   327.5519 </r>
       <r>     8.6398     8.1858   327.9885 </r>
       <r>     8.6931     0.2148   328.0000 </r>
       <r>     8.7465     0.0009   328.0000 </r>
       <r>     8.7998     0.0000   328.0000 </r>
       <r>     8.8531     0.0000   328.0000 </r>
       <r>     8.9065     0.0000   328.0000 </r>
       <r>     8.9598     0.0000   328.0000 </r>
       <r>     9.0131     0.0000   328.0000 </r>
       <r>     9.0665     0.0000   328.0000 </r>
       <r>     9.1198     0.0000   328.0000 </r>
       <r>     9.1731     0.0000   328.0000 </r>
       <r>     9.2265     0.0000   328.0000 </r>
       <r>     9.2798     0.0000   328.0000 </r>
      </set>
     </set>
    </array>
   </total>
  </dos>
 </calculation>
 <structure name="finalpos" >
  <crystal>
   <varray name="basis" >
    <v>      10.93252578       0.00000000       0.00000000 </v>
    <v>       0.00000000      10.93252578       0.00000000 </v>
    <v>       0.00000000       0.00000000      10.93252578 </v>
   </varray>
   <i name="volume">   1306.65679237 </i>
   <varray name="rec_basis" >
    <v>       0.09147017       0.00000000       0.00000000 </v>
    <v>       0.00000000       0.09147017       0.00000000 </v>
    <v>       0.00000000       0.00000000       0.09147017 </v>
   </varray>
  </crystal>
  <varray name="positions" >
   <v>       0.44024411       0.43750000       0.43750000 </v>
   <v>       0.93750000       0.43750000       0.43750000 </v>
   <v>       0.43750000       0.93750000       0.43750000 </v>
   <v>       0.93750000       0.93750000       0.43750000 </v>
   <v>       0.43750000       0.43750000       0.93750000 </v>
   <v>       0.93750000       0.43750000       0.93750000 </v>
   <v>       0.43750000       0.93750000       0.93750000 </v>
   <v>       0.93750000       0.93750000       0.93750000 </v>
   <v>       0.43750000       0.18750000       0.18750000 </v>
   <v>       0.93750000       0.18750000       0.18750000 </v>
   <v>       0.43750000       0.68750000       0.18750000 </v>
   <v>       0.93750000       0.68750000       0.18750000 </v>
   <v>       0.43750000       0.18750000       0.68750000 </v>
   <v>       0.93750000       0.18750000       0.68750000 </v>
   <v>       0.43750000       0.68750000       0.68750000 </v>
   <v>       0.93750000       0.68750000       0.68750000 </v>
   <v>       0.18750000       0.43750000       0.18750000 </v>
   <v>       0.68750000       0.43750000       0.18750000 </v>
   <v>       0.18750000       0.93750000       0.18750000 </v>
   <v>       0.68750000       0.93750000       0.18750000 </v>
   <v>       0.18750000       0.43750000       0.68750000 </v>
   <v>       0.68750000       0.43750000       0.68750000 </v>
   <v>       0.18750000       0.93750000       0.68750000 </v>
   <v>       0.68750000       0.93750000       0.68750000 </v>
   <v>       0.18750000       0.18750000       0.43750000 </v>
   <v>       0.68750000       0.18750000       0.43750000 </v>
   <v>       0.18750000       0.68750000       0.43750000 </v>
   <v>       0.68750000       0.68750000       0.43750000 </v>
   <v>       0.18750000       0.18750000       0.93750000 </v>
   <v>       0.68750000       0.18750000       0.93750000 </v>
   <v>       0.18750000       0.68750000       0.93750000 </v>
   <v>       0.68750000       0.68750000       0.93750000 </v>
   <v>       0.06250000       0.06250000       0.06250000 </v>
   <v>       0.56250000       0.06250000       0.06250000 </v>
   <v>       0.06250000       0.56250000       0.06250000 </v>
   <v>       0.56250000       0.56250000       0.06250000 </v>
   <v>       0.06250000       0.06250000       0.56250000 </v>
   <v>       0.56250000       0.06250000       0.56250000 </v>
   <v>       0.06250000       0.56250000       0.56250000 </v>
   <v>       0.56250000       0.56250000       0.56250000 </v>
   <v>       0.06250000       0.31250000       0.31250000 </v>
   <v>       0.56250000       0.31250000       0.31250000 </v>
   <v>       0.06250000       0.81250000       0.31250000 </v>
   <v>       0.56250000       0.81250000       0.31250000 </v>
   <v>       0.06250000       0.31250000       0.81250000 </v>
   <v>       0.56250000       0.31250000       0.81250000 </v>
   <v>       0.06250000       0.81250000       0.81250000 </v>
   <v>       0.56250000       0.81250000       0.81250000 </v>
   <v>       0.31250000       0.06250000       0.31250000 </v>
   <v>       0.81250000       0.06250000       0.31250000 </v>
   <v>       0.31250000       0.56250000       0.31250000 </v>
   <v>       0.81250000       0.56250000       0.31250000 </v>
   <v>       0.31250000       0.06250000       0.81250000 </v>
   <v>       0.81250000       0.06524411       0.81250000 </v>
   <v>       0.31250000       0.56250000       0.81250000 </v>
   <v>       0.81250000       0.56250000       0.81250000 </v>
   <v>       0.31250000       0.31250000       0.06250000 </v>
   <v>       0.81250000       0.31250000       0.06250000 </v>
   <v>       0.31250000       0.81250000       0.06250000 </v>
   <v>       0.81250000       0.81250000       0.06250000 </v>
   <v>       0.31250000       0.31250000       0.56250000 </v>
   <v>       0.81250000       0.31250000       0.56250000 </v>
   <v>       0.31250000       0.81250000       0.56250000 </v>
   <v>       0.81250000       0.81250000       0.56250000 </v>
  </varray>
 </structure>
</modeling>
