<?xml version="1.0" encoding="ISO-8859-1"?>
<modeling>
 <generator>
  <i name="program" type="string">vasp </i>
  <i name="version" type="string">5.4.1  </i>
  <i name="subversion" type="string">05Feb16 (build Mar 26 2016 11:58:25) complex                          parallel </i>
  <i name="platform" type="string">IFC91_ompi </i>
  <i name="date" type="string">2017 03 12 </i>
  <i name="time" type="string">12:17:11 </i>
 </generator>
 <incar>
  <i type="string" name="PREC">accurate</i>
  <i type="int" name="IALGO">    38</i>
  <i type="logical" name="ADDGRID"> T  </i>
  <i type="int" name="NELMIN">     5</i>
  <i type="int" name="IBRION">    -1</i>
  <i name="EDIFF">      0.00000001</i>
  <i name="ENCUT">    300.00000000</i>
  <i type="logical" name="LREAL"> F  </i>
  <i type="int" name="ISMEAR">     0</i>
  <i name="SIGMA">      0.05000000</i>
  <i type="logical" name="LWAVE"> F  </i>
  <i type="logical" name="LCHARG"> F  </i>
  <v type="int" name="KPOINT_BSE">    -1     0     0     0</v>
 </incar>
 <kpoints>
  <generation param="Monkhorst-Pack">
   <v type="int" name="divisions">       2        2        2 </v>
   <v name="usershift">      0.00000000       0.00000000       0.00000000 </v>
   <v name="genvec1">      0.50000000       0.00000000       0.00000000 </v>
   <v name="genvec2">      0.00000000       0.50000000       0.00000000 </v>
   <v name="genvec3">      0.00000000       0.00000000       0.50000000 </v>
   <v name="shift">      0.50000000       0.50000000       0.50000000 </v>
  </generation>
  <varray name="kpointlist" >
   <v>       0.25000000       0.25000000       0.25000000 </v>
   <v>      -0.25000000       0.25000000       0.25000000 </v>
   <v>       0.25000000      -0.25000000       0.25000000 </v>
  </varray>
  <varray name="weights" >
   <v>       0.25000000 </v>
   <v>       0.25000000 </v>
   <v>       0.50000000 </v>
  </varray>
 </kpoints>
 <parameters>
  <separator name="general" >
   <i type="string" name="SYSTEM">unknown system</i>
   <i type="logical" name="LCOMPAT"> F  </i>
  </separator>
  <separator name="electronic" >
   <i type="string" name="PREC">accura</i>
   <i name="ENMAX">    300.00000000</i>
   <i name="ENAUG">    322.06900000</i>
   <i name="EDIFF">      0.00000001</i>
   <i type="int" name="IALGO">    38</i>
   <i type="int" name="IWAVPR">    10</i>
   <i type="int" name="NBANDS">   164</i>
   <i name="NELECT">    256.00000000</i>
   <i type="int" name="TURBO">     0</i>
   <i type="int" name="IRESTART">     0</i>
   <i type="int" name="NREBOOT">     0</i>
   <i type="int" name="NMIN">     0</i>
   <i name="EREF">      0.00000000</i>
   <separator name="electronic smearing" >
    <i type="int" name="ISMEAR">     0</i>
    <i name="SIGMA">      0.05000000</i>
    <i name="KSPACING">      0.50000000</i>
    <i type="logical" name="KGAMMA"> T  </i>
   </separator>
   <separator name="electronic projectors" >
    <i type="logical" name="LREAL"> F  </i>
    <v name="ROPT">      0.00000000</v>
    <i type="int" name="LMAXPAW">  -100</i>
    <i type="int" name="LMAXMIX">     2</i>
    <i type="logical" name="NLSPLINE"> F  </i>
   </separator>
   <separator name="electronic startup" >
    <i type="int" name="ISTART">     0</i>
    <i type="int" name="ICHARG">     2</i>
    <i type="int" name="INIWAV">     1</i>
   </separator>
   <separator name="electronic spin" >
    <i type="int" name="ISPIN">     1</i>
    <i type="logical" name="LNONCOLLINEAR"> F  </i>
    <v name="MAGMOM">      1.00000000      1.00000000      1.00000000      1.00000000      1.00000000      1.00000000      1.00000000      1.00000000      1.00000000      1.00000000      1.00000000      1.00000000      1.00000000      1.00000000      1.00000000      1.00000000      1.00000000      1.00000000      1.00000000      1.00000000
      1.00000000      1.00000000      1.00000000      1.00000000      1.00000000      1.00000000      1.00000000      1.00000000      1.00000000      1.00000000      1.00000000      1.00000000      1.00000000      1.00000000      1.00000000      1.00000000      1.00000000      1.00000000      1.00000000      1.00000000
      1.00000000      1.00000000      1.00000000      1.00000000      1.00000000      1.00000000      1.00000000      1.00000000      1.00000000      1.00000000      1.00000000      1.00000000      1.00000000      1.00000000      1.00000000      1.00000000      1.00000000      1.00000000      1.00000000      1.00000000
      1.00000000      1.00000000      1.00000000      1.00000000</v>
    <i name="NUPDOWN">     -1.00000000</i>
    <i type="logical" name="LSORBIT"> F  </i>
    <v name="SAXIS">      0.00000000      0.00000000      1.00000000</v>
    <i type="logical" name="LSPIRAL"> F  </i>
    <v name="QSPIRAL">      0.00000000      0.00000000      0.00000000</v>
    <i type="logical" name="LZEROZ"> F  </i>
   </separator>
   <separator name="electronic exchange-correlation" >
    <i type="logical" name="LASPH"> F  </i>
    <i type="logical" name="LMETAGGA"> F  </i>
   </separator>
   <separator name="electronic convergence" >
    <i type="int" name="NELM">    60</i>
    <i type="int" name="NELMDL">    -5</i>
    <i type="int" name="NELMIN">     5</i>
    <i name="ENINI">    300.00000000</i>
    <separator name="electronic convergence detail" >
     <i type="logical" name="LDIAG"> T  </i>
     <i type="logical" name="LSUBROT"> F  </i>
     <i name="WEIMIN">      0.00000000</i>
     <i name="EBREAK">      0.00000000</i>
     <i name="DEPER">      0.30000000</i>
     <i type="int" name="NRMM">     4</i>
     <i name="TIME">      0.40000000</i>
    </separator>
   </separator>
   <separator name="electronic mixer" >
    <i name="AMIX">      0.40000000</i>
    <i name="BMIX">      1.00000000</i>
    <i name="AMIN">      0.10000000</i>
    <i name="AMIX_MAG">      1.60000000</i>
    <i name="BMIX_MAG">      1.00000000</i>
    <separator name="electronic mixer details" >
     <i type="int" name="IMIX">     4</i>
     <i type="logical" name="MIXFIRST"> F  </i>
     <i type="int" name="MAXMIX">   -45</i>
     <i name="WC">    100.00000000</i>
     <i type="int" name="INIMIX">     1</i>
     <i type="int" name="MIXPRE">     1</i>
     <i type="int" name="MREMOVE">     5</i>
    </separator>
   </separator>
   <separator name="electronic dipolcorrection" >
    <i type="logical" name="LDIPOL"> F  </i>
    <i type="logical" name="LMONO"> F  </i>
    <i type="int" name="IDIPOL">     0</i>
    <i name="EPSILON">      1.00000000</i>
    <v name="DIPOL">   -100.00000000   -100.00000000   -100.00000000</v>
    <i name="EFIELD">      0.00000000</i>
   </separator>
  </separator>
  <separator name="grids" >
   <i type="int" name="NGX">    64</i>
   <i type="int" name="NGY">    64</i>
   <i type="int" name="NGZ">    64</i>
   <i type="int" name="NGXF">   128</i>
   <i type="int" name="NGYF">   128</i>
   <i type="int" name="NGZF">   128</i>
   <i type="logical" name="ADDGRID"> T  </i>
  </separator>
  <separator name="ionic" >
   <i type="int" name="NSW">     0</i>
   <i type="int" name="IBRION">    -1</i>
   <i type="int" name="ISIF">     2</i>
   <i name="PSTRESS">      0.00000000</i>
   <i name="EDIFFG">      0.00000010</i>
   <i type="int" name="NFREE">     0</i>
   <i name="POTIM">      0.50000000</i>
   <i name="SMASS">     -3.00000000</i>
   <i name="SCALEE">      1.00000000</i>
  </separator>
  <separator name="ionic md" >
   <i name="TEBEG">      0.00010000</i>
   <i name="TEEND">      0.00010000</i>
   <i type="int" name="NBLOCK">     1</i>
   <i type="int" name="KBLOCK">     1</i>
   <i type="int" name="NPACO">   256</i>
   <i name="APACO">     16.00000000</i>
  </separator>
  <separator name="symmetry" >
   <i type="int" name="ISYM">     2</i>
   <i name="SYMPREC">      0.00001000</i>
  </separator>
  <separator name="dos" >
   <i type="logical" name="LORBIT"> F  </i>
   <v name="RWIGS">     -1.00000000</v>
   <i type="int" name="NEDOS">   301</i>
   <i name="EMIN">     10.00000000</i>
   <i name="EMAX">    -10.00000000</i>
   <i name="EFERMI">      0.00000000</i>
  </separator>
  <separator name="writing" >
   <i type="int" name="NWRITE">     2</i>
   <i type="logical" name="LWAVE"> F  </i>
   <i type="logical" name="LCHARG"> F  </i>
   <i type="logical" name="LPARD"> F  </i>
   <i type="logical" name="LVTOT"> F  </i>
   <i type="logical" name="LVHAR"> F  </i>
   <i type="logical" name="LELF"> F  </i>
   <i type="logical" name="LOPTICS"> F  </i>
   <v name="STM">      0.00000000      0.00000000      0.00000000      0.00000000      0.00000000      0.00000000      0.00000000</v>
  </separator>
  <separator name="performance" >
   <i type="int" name="NPAR">     4</i>
   <i type="int" name="NSIM">     4</i>
   <i type="int" name="NBLK">    -1</i>
   <i type="logical" name="LPLANE"> T  </i>
   <i type="logical" name="LSCALAPACK"> T  </i>
   <i type="logical" name="LSCAAWARE"> F  </i>
   <i type="logical" name="LSCALU"> F  </i>
   <i type="logical" name="LASYNC"> F  </i>
   <i type="logical" name="LORBITALREAL"> F  </i>
  </separator>
  <separator name="miscellaneous" >
   <i type="int" name="IDIOT">     3</i>
   <i type="logical" name="LMUSIC"> F  </i>
   <v name="POMASS">     28.08500000</v>
   <v name="DARWINR">      0.00000000</v>
   <v name="DARWINV">      1.00000000</v>
   <i type="logical" name="LCORR"> T  </i>
  </separator>
  <i type="logical" name="GGA_COMPAT"> T  </i>
  <i type="logical" name="LBERRY"> F  </i>
  <i type="int" name="ICORELEVEL">     0</i>
  <i type="logical" name="LDAU"> F  </i>
  <i type="int" name="I_CONSTRAINED_M">     0</i>
  <separator name="electronic exchange-correlation" >
   <i type="string" name="GGA">--</i>
   <i type="int" name="VOSKOWN">     0</i>
   <i type="logical" name="LHFCALC"> F  </i>
   <i type="string" name="PRECFOCK"></i>
   <i type="logical" name="LSYMGRAD"> F  </i>
   <i type="logical" name="LHFONE"> F  </i>
   <i type="logical" name="LRHFCALC"> F  </i>
   <i type="logical" name="LTHOMAS"> F  </i>
   <i type="logical" name="LMODELHF"> F  </i>
   <i name="ENCUT4O">     -1.00000000</i>
   <i type="int" name="EXXOEP">     0</i>
   <i type="int" name="FOURORBIT">     0</i>
   <i name="AEXX">      0.00000000</i>
   <i name="HFALPHA">      0.00000000</i>
   <i name="MCALPHA">      0.00000000</i>
   <i name="ALDAX">      1.00000000</i>
   <i name="AGGAX">      1.00000000</i>
   <i name="ALDAC">      1.00000000</i>
   <i name="AGGAC">      1.00000000</i>
   <i type="int" name="NKREDX">     1</i>
   <i type="int" name="NKREDY">     1</i>
   <i type="int" name="NKREDZ">     1</i>
   <i type="logical" name="SHIFTRED"> F  </i>
   <i type="logical" name="ODDONLY"> F  </i>
   <i type="logical" name="EVENONLY"> F  </i>
   <i type="int" name="LMAXFOCK">     0</i>
   <i type="int" name="NMAXFOCKAE">     0</i>
   <i type="logical" name="LFOCKAEDFT"> F  </i>
   <i name="HFSCREEN">      0.00000000</i>
   <i name="HFSCREENC">      0.00000000</i>
   <i type="int" name="NBANDSGWLOW">     0</i>
  </separator>
  <separator name="vdW DFT" >
   <i type="logical" name="LUSE_VDW"> F  </i>
   <i name="Zab_VDW">     -0.84910000</i>
   <i name="PARAM1">      0.12340000</i>
   <i name="PARAM2">      1.00000000</i>
   <i name="PARAM3">      0.00000000</i>
  </separator>
  <separator name="model GW" >
   <i type="int" name="MODEL_GW">     0</i>
   <i name="MODEL_EPS0">     12.24990743</i>
   <i name="MODEL_ALPHA">      1.00000000</i>
  </separator>
  <separator name="linear response parameters" >
   <i type="logical" name="LEPSILON"> F  </i>
   <i type="logical" name="LRPA"> F  </i>
   <i type="logical" name="LNABLA"> F  </i>
   <i type="logical" name="LVEL"> F  </i>
   <i type="int" name="KINTER">     0</i>
   <i name="CSHIFT">      0.10000000</i>
   <i name="OMEGAMAX">     -1.00000000</i>
   <i name="DEG_THRESHOLD">      0.00200000</i>
  </separator>
  <separator name="orbital magnetization" >
   <i type="logical" name="NUCIND"> F  </i>
   <v name="MAGPOS">      0.00000000      0.00000000      0.00000000</v>
   <i type="logical" name="LNICSALL"> T  </i>
   <i type="logical" name="ORBITALMAG"> F  </i>
   <i type="logical" name="LMAGBLOCH"> F  </i>
   <i type="logical" name="LCHIMAG"> F  </i>
   <i type="logical" name="LGAUGE"> T  </i>
   <i type="int" name="MAGATOM">     0</i>
   <v name="MAGDIPOL">      0.00000000      0.00000000      0.00000000</v>
   <v name="AVECCONST">      0.00000000      0.00000000      0.00000000</v>
  </separator>
  <separator name="response functions" >
   <i type="logical" name="LADDER"> F  </i>
   <i type="logical" name="LFXC"> F  </i>
   <i type="logical" name="LHARTREE"> T  </i>
   <i type="int" name="IBSE">     0</i>
   <v type="int" name="KPOINT">    -1     0     0     0</v>
   <i type="logical" name="LTCTE"> F  </i>
   <i type="logical" name="LTETE"> F  </i>
   <i type="logical" name="LTRIPLET"> F  </i>
   <i type="logical" name="LFXCEPS"> F  </i>
   <i type="logical" name="LFXHEG"> F  </i>
   <i type="int" name="NATURALO">     0</i>
   <i type="logical" name="L2ORDER"> F  </i>
   <i type="logical" name="LUSEW"> F  </i>
   <i name="ENCUTGW">     -2.00000000</i>
   <i name="ENCUTGWSOFT">     -2.00000000</i>
   <i name="ENCUTLF">     -1.00000000</i>
   <i type="int" name="LMAXMP2">    -1</i>
   <i name="SCISSOR">      0.00000000</i>
   <i type="int" name="NOMEGA">     0</i>
   <i type="int" name="NOMEGAR">     0</i>
   <i type="int" name="NBANDSGW">    -1</i>
   <i type="int" name="NBANDSO">    -1</i>
   <i type="int" name="NBANDSV">    -1</i>
   <i type="int" name="NELM">     1</i>
   <i type="int" name="NELMHF">     1</i>
   <i type="int" name="DIM">     3</i>
   <i type="int" name="ANTIRES">     0</i>
   <i name="OMEGAMAX">    -30.00000000</i>
   <i name="OMEGAMIN">    -30.00000000</i>
   <i name="OMEGATL">   -200.00000000</i>
   <i type="int" name="OMEGAGRID">     0</i>
   <i name="CSHIFT">     -0.10000000</i>
   <i type="logical" name="SELFENERGY"> F  </i>
   <i type="logical" name="LSPECTRAL"> F  </i>
   <i type="logical" name="LSPECTRALGW"> F  </i>
   <i type="logical" name="LSINGLES"> F  </i>
   <i type="logical" name="LFERMIGW"> F  </i>
   <i type="logical" name="ODDONLYGW"> F  </i>
   <i type="logical" name="EVENONLYGW"> F  </i>
   <i type="int" name="NKREDLFX">     1</i>
   <i type="int" name="NKREDLFY">     1</i>
   <i type="int" name="NKREDLFZ">     1</i>
   <i type="int" name="MAXMEM">  1800</i>
   <i type="int" name="TELESCOPE">     0</i>
   <i type="int" name="TAUPAR">     1</i>
   <i type="int" name="OMEGAPAR">    -1</i>
   <i name="LAMBDA">      1.00000000</i>
  </separator>
  <separator name="External order field" >
   <i name="OFIELD_KAPPA">      0.00000000</i>
   <v name="OFIELD_K">      0.00000000      0.00000000      0.00000000</v>
   <i name="OFIELD_Q6_NEAR">      0.00000000</i>
   <i name="OFIELD_Q6_FAR">      0.00000000</i>
   <i name="OFIELD_A">      0.00000000</i>
  </separator>
 </parameters>
 <atominfo>
  <atoms>      64 </atoms>
  <types>       1 </types>
  <array name="atoms" >
   <dimension dim="1">ion</dimension>
   <field type="string">element</field>
   <field type="int">atomtype</field>
   <set>
    <rc><c>Si</c><c>   1</c></rc>
    <rc><c>Si</c><c>   1</c></rc>
    <rc><c>Si</c><c>   1</c></rc>
    <rc><c>Si</c><c>   1</c></rc>
    <rc><c>Si</c><c>   1</c></rc>
    <rc><c>Si</c><c>   1</c></rc>
    <rc><c>Si</c><c>   1</c></rc>
    <rc><c>Si</c><c>   1</c></rc>
    <rc><c>Si</c><c>   1</c></rc>
    <rc><c>Si</c><c>   1</c></rc>
    <rc><c>Si</c><c>   1</c></rc>
    <rc><c>Si</c><c>   1</c></rc>
    <rc><c>Si</c><c>   1</c></rc>
    <rc><c>Si</c><c>   1</c></rc>
    <rc><c>Si</c><c>   1</c></rc>
    <rc><c>Si</c><c>   1</c></rc>
    <rc><c>Si</c><c>   1</c></rc>
    <rc><c>Si</c><c>   1</c></rc>
    <rc><c>Si</c><c>   1</c></rc>
    <rc><c>Si</c><c>   1</c></rc>
    <rc><c>Si</c><c>   1</c></rc>
    <rc><c>Si</c><c>   1</c></rc>
    <rc><c>Si</c><c>   1</c></rc>
    <rc><c>Si</c><c>   1</c></rc>
    <rc><c>Si</c><c>   1</c></rc>
    <rc><c>Si</c><c>   1</c></rc>
    <rc><c>Si</c><c>   1</c></rc>
    <rc><c>Si</c><c>   1</c></rc>
    <rc><c>Si</c><c>   1</c></rc>
    <rc><c>Si</c><c>   1</c></rc>
    <rc><c>Si</c><c>   1</c></rc>
    <rc><c>Si</c><c>   1</c></rc>
    <rc><c>Si</c><c>   1</c></rc>
    <rc><c>Si</c><c>   1</c></rc>
    <rc><c>Si</c><c>   1</c></rc>
    <rc><c>Si</c><c>   1</c></rc>
    <rc><c>Si</c><c>   1</c></rc>
    <rc><c>Si</c><c>   1</c></rc>
    <rc><c>Si</c><c>   1</c></rc>
    <rc><c>Si</c><c>   1</c></rc>
    <rc><c>Si</c><c>   1</c></rc>
    <rc><c>Si</c><c>   1</c></rc>
    <rc><c>Si</c><c>   1</c></rc>
    <rc><c>Si</c><c>   1</c></rc>
    <rc><c>Si</c><c>   1</c></rc>
    <rc><c>Si</c><c>   1</c></rc>
    <rc><c>Si</c><c>   1</c></rc>
    <rc><c>Si</c><c>   1</c></rc>
    <rc><c>Si</c><c>   1</c></rc>
    <rc><c>Si</c><c>   1</c></rc>
    <rc><c>Si</c><c>   1</c></rc>
    <rc><c>Si</c><c>   1</c></rc>
    <rc><c>Si</c><c>   1</c></rc>
    <rc><c>Si</c><c>   1</c></rc>
    <rc><c>Si</c><c>   1</c></rc>
    <rc><c>Si</c><c>   1</c></rc>
    <rc><c>Si</c><c>   1</c></rc>
    <rc><c>Si</c><c>   1</c></rc>
    <rc><c>Si</c><c>   1</c></rc>
    <rc><c>Si</c><c>   1</c></rc>
    <rc><c>Si</c><c>   1</c></rc>
    <rc><c>Si</c><c>   1</c></rc>
    <rc><c>Si</c><c>   1</c></rc>
    <rc><c>Si</c><c>   1</c></rc>
   </set>
  </array>
  <array name="atomtypes" >
   <dimension dim="1">type</dimension>
   <field type="int">atomspertype</field>
   <field type="string">element</field>
   <field>mass</field>
   <field>valence</field>
   <field type="string">pseudopotential</field>
   <set>
    <rc><c>  64</c><c>Si</c><c>     28.08500000</c><c>      4.00000000</c><c>  PAW_PBE Si 05Jan2001                  </c></rc>
   </set>
  </array>
 </atominfo>
 <structure name="initialpos" >
  <crystal>
   <varray name="basis" >
    <v>      10.93252578       0.00000000       0.00000000 </v>
    <v>       0.00000000      10.93252578       0.00000000 </v>
    <v>       0.00000000       0.00000000      10.93252578 </v>
   </varray>
   <i name="volume">   1306.65679237 </i>
   <varray name="rec_basis" >
    <v>       0.09147017       0.00000000       0.00000000 </v>
    <v>       0.00000000       0.09147017       0.00000000 </v>
    <v>       0.00000000       0.00000000       0.09147017 </v>
   </varray>
  </crystal>
  <varray name="positions" >
   <v>       0.44024411       0.43750000       0.43750000 </v>
   <v>       0.93750000       0.43750000       0.43750000 </v>
   <v>       0.43750000       0.93750000       0.43750000 </v>
   <v>       0.93750000       0.93750000       0.43750000 </v>
   <v>       0.43750000       0.43750000       0.93750000 </v>
   <v>       0.93750000       0.43750000       0.93750000 </v>
   <v>       0.43750000       0.93750000       0.93750000 </v>
   <v>       0.93750000       0.93750000       0.93750000 </v>
   <v>       0.43750000       0.18750000       0.18750000 </v>
   <v>       0.93750000       0.18750000       0.18750000 </v>
   <v>       0.43750000       0.68750000       0.18750000 </v>
   <v>       0.93750000       0.68750000       0.18750000 </v>
   <v>       0.43750000       0.18750000       0.68750000 </v>
   <v>       0.93750000       0.18750000       0.68750000 </v>
   <v>       0.43750000       0.68750000       0.68750000 </v>
   <v>       0.93750000       0.68750000       0.68750000 </v>
   <v>       0.18750000       0.43750000       0.18750000 </v>
   <v>       0.68750000       0.43750000       0.18750000 </v>
   <v>       0.18750000       0.93750000       0.18750000 </v>
   <v>       0.68750000       0.93750000       0.18750000 </v>
   <v>       0.18750000       0.43750000       0.68750000 </v>
   <v>       0.68750000       0.43750000       0.68750000 </v>
   <v>       0.18750000       0.93750000       0.68750000 </v>
   <v>       0.68750000       0.93750000       0.68750000 </v>
   <v>       0.18750000       0.18750000       0.43750000 </v>
   <v>       0.68750000       0.18750000       0.43750000 </v>
   <v>       0.18750000       0.68750000       0.43750000 </v>
   <v>       0.68750000       0.68750000       0.43750000 </v>
   <v>       0.18750000       0.18750000       0.93750000 </v>
   <v>       0.68750000       0.18750000       0.93750000 </v>
   <v>       0.18750000       0.68750000       0.93750000 </v>
   <v>       0.68750000       0.68750000       0.93750000 </v>
   <v>       0.06250000       0.06250000       0.06250000 </v>
   <v>       0.56250000       0.06250000       0.06250000 </v>
   <v>       0.06250000       0.56250000       0.06250000 </v>
   <v>       0.56250000       0.56250000       0.06250000 </v>
   <v>       0.06250000       0.06250000       0.56250000 </v>
   <v>       0.56250000       0.06250000       0.56250000 </v>
   <v>       0.05975589       0.56250000       0.56250000 </v>
   <v>       0.56250000       0.56250000       0.56250000 </v>
   <v>       0.06250000       0.31250000       0.31250000 </v>
   <v>       0.56250000       0.31250000       0.31250000 </v>
   <v>       0.06250000       0.81250000       0.31250000 </v>
   <v>       0.56250000       0.81250000       0.31250000 </v>
   <v>       0.06250000       0.31250000       0.81250000 </v>
   <v>       0.56250000       0.31250000       0.81250000 </v>
   <v>       0.06250000       0.81250000       0.81250000 </v>
   <v>       0.56250000       0.81250000       0.81250000 </v>
   <v>       0.31250000       0.06250000       0.31250000 </v>
   <v>       0.81250000       0.06250000       0.31250000 </v>
   <v>       0.31250000       0.56250000       0.31250000 </v>
   <v>       0.81250000       0.56250000       0.31250000 </v>
   <v>       0.31250000       0.06250000       0.81250000 </v>
   <v>       0.81250000       0.06250000       0.81250000 </v>
   <v>       0.31250000       0.56250000       0.81250000 </v>
   <v>       0.81250000       0.56250000       0.81250000 </v>
   <v>       0.31250000       0.31250000       0.06250000 </v>
   <v>       0.81250000       0.31250000       0.06250000 </v>
   <v>       0.31250000       0.81250000       0.06250000 </v>
   <v>       0.81250000       0.81250000       0.06250000 </v>
   <v>       0.31250000       0.31250000       0.56250000 </v>
   <v>       0.81250000       0.31250000       0.56250000 </v>
   <v>       0.31250000       0.81250000       0.56250000 </v>
   <v>       0.81250000       0.81250000       0.56250000 </v>
  </varray>
 </structure>
 <calculation>
  <scstep>
   <time name="dav">    4.14    4.15</time>
   <time name="total">    4.41    4.46</time>
   <energy>
    <i name="alphaZ">    105.52440745 </i>
    <i name="ewald">  -7265.46664659 </i>
    <i name="hartreedc">   -361.71688524 </i>
    <i name="XCdc">   -597.75712466 </i>
    <i name="pawpsdc">   5639.92317535 </i>
    <i name="pawaedc">  -4513.95313856 </i>
    <i name="eentropy">     -0.00018304 </i>
    <i name="bandstr">    856.47377643 </i>
    <i name="atom">   6596.14994790 </i>
    <i name="e_fr_energy">    459.17732905 </i>
    <i name="e_wo_entrp">    459.17751209 </i>
    <i name="e_0_energy">    459.17742057 </i>
   </energy>
  </scstep>
  <scstep>
   <time name="dav">    4.71    4.72</time>
   <time name="total">    4.72    4.74</time>
   <energy>
    <i name="e_fr_energy">   -299.96789045 </i>
    <i name="e_wo_entrp">   -299.96789045 </i>
    <i name="e_0_energy">   -299.96789045 </i>
   </energy>
  </scstep>
  <scstep>
   <time name="dav">    4.78    4.79</time>
   <time name="total">    4.78    4.79</time>
   <energy>
    <i name="e_fr_energy">   -350.82580826 </i>
    <i name="e_wo_entrp">   -350.82580826 </i>
    <i name="e_0_energy">   -350.82580826 </i>
   </energy>
  </scstep>
  <scstep>
   <time name="dav">    4.75    4.77</time>
   <time name="total">    4.75    4.79</time>
   <energy>
    <i name="e_fr_energy">   -352.26394963 </i>
    <i name="e_wo_entrp">   -352.26394963 </i>
    <i name="e_0_energy">   -352.26394963 </i>
   </energy>
  </scstep>
  <scstep>
   <time name="dav">    4.72    4.74</time>
   <time name="total">    5.02    5.04</time>
   <energy>
    <i name="e_fr_energy">   -352.31284596 </i>
    <i name="e_wo_entrp">   -352.31284596 </i>
    <i name="e_0_energy">   -352.31284596 </i>
   </energy>
  </scstep>
  <scstep>
   <time name="dav">    4.58    4.59</time>
   <time name="total">    5.13    5.15</time>
   <energy>
    <i name="e_fr_energy">   -348.58442811 </i>
    <i name="e_wo_entrp">   -348.58442811 </i>
    <i name="e_0_energy">   -348.58442811 </i>
   </energy>
  </scstep>
  <scstep>
   <time name="dav">    4.59    4.62</time>
   <time name="total">    5.14    5.18</time>
   <energy>
    <i name="e_fr_energy">   -346.87191731 </i>
    <i name="e_wo_entrp">   -346.87191731 </i>
    <i name="e_0_energy">   -346.87191731 </i>
   </energy>
  </scstep>
  <scstep>
   <time name="dav">    4.65    4.66</time>
   <time name="total">    5.21    5.24</time>
   <energy>
    <i name="e_fr_energy">   -346.89808335 </i>
    <i name="e_wo_entrp">   -346.89808335 </i>
    <i name="e_0_energy">   -346.89808335 </i>
   </energy>
  </scstep>
  <scstep>
   <time name="dav">    4.83    4.84</time>
   <time name="total">    5.38    5.41</time>
   <energy>
    <i name="e_fr_energy">   -346.90489831 </i>
    <i name="e_wo_entrp">   -346.90489831 </i>
    <i name="e_0_energy">   -346.90489831 </i>
   </energy>
  </scstep>
  <scstep>
   <time name="dav">    4.45    4.47</time>
   <time name="total">    5.01    5.03</time>
   <energy>
    <i name="e_fr_energy">   -346.90693116 </i>
    <i name="e_wo_entrp">   -346.90693116 </i>
    <i name="e_0_energy">   -346.90693116 </i>
   </energy>
  </scstep>
  <scstep>
   <time name="dav">    4.74    4.76</time>
   <time name="total">    5.31    5.33</time>
   <energy>
    <i name="e_fr_energy">   -346.90690594 </i>
    <i name="e_wo_entrp">   -346.90690594 </i>
    <i name="e_0_energy">   -346.90690594 </i>
   </energy>
  </scstep>
  <scstep>
   <time name="dav">    4.63    4.64</time>
   <time name="total">    5.20    5.22</time>
   <energy>
    <i name="e_fr_energy">   -346.90692094 </i>
    <i name="e_wo_entrp">   -346.90692094 </i>
    <i name="e_0_energy">   -346.90692094 </i>
   </energy>
  </scstep>
  <scstep>
   <time name="dav">    4.68    4.69</time>
   <time name="total">    5.26    5.28</time>
   <energy>
    <i name="e_fr_energy">   -346.90692128 </i>
    <i name="e_wo_entrp">   -346.90692128 </i>
    <i name="e_0_energy">   -346.90692128 </i>
   </energy>
  </scstep>
  <scstep>
   <time name="dav">    4.71    4.72</time>
   <time name="total">    5.27    5.29</time>
   <energy>
    <i name="e_fr_energy">   -346.90692194 </i>
    <i name="e_wo_entrp">   -346.90692194 </i>
    <i name="e_0_energy">   -346.90692194 </i>
   </energy>
  </scstep>
  <scstep>
   <time name="dav">    4.07    4.08</time>
   <time name="total">    4.63    4.65</time>
   <energy>
    <i name="e_fr_energy">   -346.90692167 </i>
    <i name="e_wo_entrp">   -346.90692167 </i>
    <i name="e_0_energy">   -346.90692167 </i>
   </energy>
  </scstep>
  <scstep>
   <time name="dav">    3.21    3.22</time>
   <time name="total">    3.77    3.82</time>
   <energy>
    <i name="e_fr_energy">   -346.90692177 </i>
    <i name="e_wo_entrp">   -346.90692177 </i>
    <i name="e_0_energy">   -346.90692177 </i>
   </energy>
  </scstep>
  <scstep>
   <time name="dav">    3.17    3.17</time>
   <time name="total">    3.73    3.75</time>
   <energy>
    <i name="e_fr_energy">   -346.90692176 </i>
    <i name="e_wo_entrp">   -346.90692176 </i>
    <i name="e_0_energy">   -346.90692176 </i>
   </energy>
  </scstep>
  <scstep>
   <time name="dav">    3.12    3.13</time>
   <time name="total">    3.68    3.70</time>
   <energy>
    <i name="e_fr_energy">   -346.90692177 </i>
    <i name="e_wo_entrp">   -346.90692177 </i>
    <i name="e_0_energy">   -346.90692177 </i>
   </energy>
  </scstep>
  <scstep>
   <time name="dav">    3.12    3.12</time>
   <time name="total">    3.38    3.39</time>
   <energy>
    <i name="alphaZ">    105.52440745 </i>
    <i name="ewald">  -7265.46664659 </i>
    <i name="hartreedc">   -485.14769498 </i>
    <i name="XCdc">   -577.61228046 </i>
    <i name="pawpsdc">  27883.44386972 </i>
    <i name="pawaedc"> -26764.16179966 </i>
    <i name="eentropy">      0.00000000 </i>
    <i name="bandstr">    160.36327485 </i>
    <i name="atom">   6596.14994790 </i>
    <i name="e_fr_energy">   -346.90692178 </i>
    <i name="e_wo_entrp">   -346.90692178 </i>
    <i name="e_0_energy">   -346.90692178 </i>
   </energy>
  </scstep>
  <structure>
   <crystal>
    <varray name="basis" >
     <v>      10.93252578       0.00000000       0.00000000 </v>
     <v>       0.00000000      10.93252578       0.00000000 </v>
     <v>       0.00000000       0.00000000      10.93252578 </v>
    </varray>
    <i name="volume">   1306.65679237 </i>
    <varray name="rec_basis" >
     <v>       0.09147017       0.00000000       0.00000000 </v>
     <v>       0.00000000       0.09147017       0.00000000 </v>
     <v>       0.00000000       0.00000000       0.09147017 </v>
    </varray>
   </crystal>
   <varray name="positions" >
    <v>       0.44024411       0.43750000       0.43750000 </v>
    <v>       0.93750000       0.43750000       0.43750000 </v>
    <v>       0.43750000       0.93750000       0.43750000 </v>
    <v>       0.93750000       0.93750000       0.43750000 </v>
    <v>       0.43750000       0.43750000       0.93750000 </v>
    <v>       0.93750000       0.43750000       0.93750000 </v>
    <v>       0.43750000       0.93750000       0.93750000 </v>
    <v>       0.93750000       0.93750000       0.93750000 </v>
    <v>       0.43750000       0.18750000       0.18750000 </v>
    <v>       0.93750000       0.18750000       0.18750000 </v>
    <v>       0.43750000       0.68750000       0.18750000 </v>
    <v>       0.93750000       0.68750000       0.18750000 </v>
    <v>       0.43750000       0.18750000       0.68750000 </v>
    <v>       0.93750000       0.18750000       0.68750000 </v>
    <v>       0.43750000       0.68750000       0.68750000 </v>
    <v>       0.93750000       0.68750000       0.68750000 </v>
    <v>       0.18750000       0.43750000       0.18750000 </v>
    <v>       0.68750000       0.43750000       0.18750000 </v>
    <v>       0.18750000       0.93750000       0.18750000 </v>
    <v>       0.68750000       0.93750000       0.18750000 </v>
    <v>       0.18750000       0.43750000       0.68750000 </v>
    <v>       0.68750000       0.43750000       0.68750000 </v>
    <v>       0.18750000       0.93750000       0.68750000 </v>
    <v>       0.68750000       0.93750000       0.68750000 </v>
    <v>       0.18750000       0.18750000       0.43750000 </v>
    <v>       0.68750000       0.18750000       0.43750000 </v>
    <v>       0.18750000       0.68750000       0.43750000 </v>
    <v>       0.68750000       0.68750000       0.43750000 </v>
    <v>       0.18750000       0.18750000       0.93750000 </v>
    <v>       0.68750000       0.18750000       0.93750000 </v>
    <v>       0.18750000       0.68750000       0.93750000 </v>
    <v>       0.68750000       0.68750000       0.93750000 </v>
    <v>       0.06250000       0.06250000       0.06250000 </v>
    <v>       0.56250000       0.06250000       0.06250000 </v>
    <v>       0.06250000       0.56250000       0.06250000 </v>
    <v>       0.56250000       0.56250000       0.06250000 </v>
    <v>       0.06250000       0.06250000       0.56250000 </v>
    <v>       0.56250000       0.06250000       0.56250000 </v>
    <v>       0.05975589       0.56250000       0.56250000 </v>
    <v>       0.56250000       0.56250000       0.56250000 </v>
    <v>       0.06250000       0.31250000       0.31250000 </v>
    <v>       0.56250000       0.31250000       0.31250000 </v>
    <v>       0.06250000       0.81250000       0.31250000 </v>
    <v>       0.56250000       0.81250000       0.31250000 </v>
    <v>       0.06250000       0.31250000       0.81250000 </v>
    <v>       0.56250000       0.31250000       0.81250000 </v>
    <v>       0.06250000       0.81250000       0.81250000 </v>
    <v>       0.56250000       0.81250000       0.81250000 </v>
    <v>       0.31250000       0.06250000       0.31250000 </v>
    <v>       0.81250000       0.06250000       0.31250000 </v>
    <v>       0.31250000       0.56250000       0.31250000 </v>
    <v>       0.81250000       0.56250000       0.31250000 </v>
    <v>       0.31250000       0.06250000       0.81250000 </v>
    <v>       0.81250000       0.06250000       0.81250000 </v>
    <v>       0.31250000       0.56250000       0.81250000 </v>
    <v>       0.81250000       0.56250000       0.81250000 </v>
    <v>       0.31250000       0.31250000       0.06250000 </v>
    <v>       0.81250000       0.31250000       0.06250000 </v>
    <v>       0.31250000       0.81250000       0.06250000 </v>
    <v>       0.81250000       0.81250000       0.06250000 </v>
    <v>       0.31250000       0.31250000       0.56250000 </v>
    <v>       0.81250000       0.31250000       0.56250000 </v>
    <v>       0.31250000       0.81250000       0.56250000 </v>
    <v>       0.81250000       0.81250000       0.56250000 </v>
   </varray>
  </structure>
  <varray name="forces" >
   <v>      -0.38686191      -0.00090942      -0.00090942 </v>
   <v>      -0.09525483      -0.06611010      -0.06611010 </v>
   <v>       0.00069938      -0.00060100      -0.00065175 </v>
   <v>       0.00129846      -0.00092464      -0.00120911 </v>
   <v>       0.00069938      -0.00065175      -0.00060100 </v>
   <v>       0.00129846      -0.00120911      -0.00092464 </v>
   <v>      -0.01101545      -0.00075542      -0.00075542 </v>
   <v>      -0.00563824      -0.00068615      -0.00068615 </v>
   <v>      -0.01235017       0.00352627       0.00352627 </v>
   <v>      -0.00623764       0.00091189       0.00091189 </v>
   <v>      -0.01339031       0.00331862      -0.00205985 </v>
   <v>       0.00147438       0.00144586       0.00068975 </v>
   <v>      -0.01339031      -0.00205985       0.00331862 </v>
   <v>       0.00147438       0.00068975       0.00144586 </v>
   <v>      -0.01260998      -0.00186300      -0.00186300 </v>
   <v>      -0.09583798       0.06588637       0.06588637 </v>
   <v>       0.00708006      -0.00142391       0.00466883 </v>
   <v>       0.00513823      -0.00205979      -0.00632967 </v>
   <v>      -0.00511573       0.00044679      -0.00253684 </v>
   <v>       0.00155626       0.00051533       0.00110115 </v>
   <v>      -0.08741737       0.06362556      -0.06652764 </v>
   <v>       0.00607950       0.00367290       0.00478584 </v>
   <v>       0.00245087       0.00111948       0.00061453 </v>
   <v>       0.00035886       0.00086901      -0.00255322 </v>
   <v>       0.00708006       0.00466883      -0.00142391 </v>
   <v>       0.00513823      -0.00632967      -0.00205979 </v>
   <v>      -0.08741737      -0.06652764       0.06362556 </v>
   <v>       0.00607950       0.00478584       0.00367290 </v>
   <v>      -0.00511573      -0.00253684       0.00044679 </v>
   <v>       0.00155626       0.00110115       0.00051533 </v>
   <v>       0.00245087       0.00061453       0.00111948 </v>
   <v>       0.00035886      -0.00255322       0.00086901 </v>
   <v>       0.01101545       0.00075542       0.00075542 </v>
   <v>       0.00563824       0.00068615       0.00068615 </v>
   <v>      -0.00069938       0.00065175       0.00060100 </v>
   <v>      -0.00129846       0.00120911       0.00092464 </v>
   <v>      -0.00069938       0.00060100       0.00065175 </v>
   <v>      -0.00129846       0.00092464       0.00120911 </v>
   <v>       0.38686191       0.00090942       0.00090942 </v>
   <v>       0.09525483       0.06611010       0.06611010 </v>
   <v>       0.01260998       0.00186300       0.00186300 </v>
   <v>       0.09583798      -0.06588637      -0.06588637 </v>
   <v>       0.01339031       0.00205985      -0.00331862 </v>
   <v>      -0.00147438      -0.00068975      -0.00144586 </v>
   <v>       0.01339031      -0.00331862       0.00205985 </v>
   <v>      -0.00147438      -0.00144586      -0.00068975 </v>
   <v>       0.01235017      -0.00352627      -0.00352627 </v>
   <v>       0.00623764      -0.00091189      -0.00091189 </v>
   <v>      -0.00245087      -0.00111948      -0.00061453 </v>
   <v>      -0.00035886      -0.00086901       0.00255322 </v>
   <v>       0.08741737      -0.06362556       0.06652764 </v>
   <v>      -0.00607950      -0.00367290      -0.00478584 </v>
   <v>       0.00511573      -0.00044679       0.00253684 </v>
   <v>      -0.00155626      -0.00051533      -0.00110115 </v>
   <v>      -0.00708006       0.00142391      -0.00466883 </v>
   <v>      -0.00513823       0.00205979       0.00632967 </v>
   <v>      -0.00245087      -0.00061453      -0.00111948 </v>
   <v>      -0.00035886       0.00255322      -0.00086901 </v>
   <v>       0.00511573       0.00253684      -0.00044679 </v>
   <v>      -0.00155626      -0.00110115      -0.00051533 </v>
   <v>       0.08741737       0.06652764      -0.06362556 </v>
   <v>      -0.00607950      -0.00478584      -0.00367290 </v>
   <v>      -0.00708006      -0.00466883       0.00142391 </v>
   <v>      -0.00513823       0.00632967       0.00205979 </v>
  </varray>
  <varray name="stress" >
   <v>      -0.01751547      -0.00002090      -0.00002090 </v>
   <v>      -0.00002087       0.02081871       0.66969915 </v>
   <v>      -0.00002087       0.66969915       0.02081871 </v>
  </varray>
  <energy>
   <i name="e_fr_energy">   -346.90692178 </i>
   <i name="e_wo_entrp">   -346.90692178 </i>
   <i name="e_0_energy">      0.00000000 </i>
  </energy>
  <time name="totalsc">   99.58  100.10</time>
  <eigenvalues>
   <array>
    <dimension dim="1">band</dimension>
    <dimension dim="2">kpoint</dimension>
    <dimension dim="3">spin</dimension>
    <field>eigene</field>
    <field>occ</field>
    <set>
     <set comment="spin 1">
      <set comment="kpoint 1">
       <r>   -5.9931    1.0000 </r>
       <r>   -5.4701    1.0000 </r>
       <r>   -5.4632    1.0000 </r>
       <r>   -5.4613    1.0000 </r>
       <r>   -4.9706    1.0000 </r>
       <r>   -4.9638    1.0000 </r>
       <r>   -4.9621    1.0000 </r>
       <r>   -4.5314    1.0000 </r>
       <r>   -4.4374    1.0000 </r>
       <r>   -4.4308    1.0000 </r>
       <r>   -4.4280    1.0000 </r>
       <r>   -4.0269    1.0000 </r>
       <r>   -4.0175    1.0000 </r>
       <r>   -4.0164    1.0000 </r>
       <r>   -4.0139    1.0000 </r>
       <r>   -4.0138    1.0000 </r>
       <r>   -4.0129    1.0000 </r>
       <r>   -3.8309    1.0000 </r>
       <r>   -3.8226    1.0000 </r>
       <r>   -3.8215    1.0000 </r>
       <r>   -3.3313    1.0000 </r>
       <r>   -3.3264    1.0000 </r>
       <r>   -3.3220    1.0000 </r>
       <r>   -2.9637    1.0000 </r>
       <r>   -2.9585    1.0000 </r>
       <r>   -2.9565    1.0000 </r>
       <r>   -2.8024    1.0000 </r>
       <r>   -2.7910    1.0000 </r>
       <r>   -2.7908    1.0000 </r>
       <r>   -2.7882    1.0000 </r>
       <r>   -2.7881    1.0000 </r>
       <r>   -2.7864    1.0000 </r>
       <r>   -1.2607    1.0000 </r>
       <r>   -1.2495    1.0000 </r>
       <r>   -1.2486    1.0000 </r>
       <r>   -1.2457    1.0000 </r>
       <r>   -1.2436    1.0000 </r>
       <r>   -1.2426    1.0000 </r>
       <r>   -1.1518    1.0000 </r>
       <r>   -1.1511    1.0000 </r>
       <r>   -1.1473    1.0000 </r>
       <r>   -1.0368    1.0000 </r>
       <r>   -1.0311    1.0000 </r>
       <r>   -1.0252    1.0000 </r>
       <r>   -0.9557    1.0000 </r>
       <r>   -0.9520    1.0000 </r>
       <r>   -0.9447    1.0000 </r>
       <r>   -0.2480    1.0000 </r>
       <r>   -0.1688    1.0000 </r>
       <r>   -0.1606    1.0000 </r>
       <r>   -0.1589    1.0000 </r>
       <r>   -0.1569    1.0000 </r>
       <r>   -0.1539    1.0000 </r>
       <r>   -0.1531    1.0000 </r>
       <r>    0.7045    1.0000 </r>
       <r>    0.7139    1.0000 </r>
       <r>    0.7175    1.0000 </r>
       <r>    1.0419    1.0000 </r>
       <r>    1.0489    1.0000 </r>
       <r>    1.0506    1.0000 </r>
       <r>    1.6504    1.0000 </r>
       <r>    1.6556    1.0000 </r>
       <r>    1.6565    1.0000 </r>
       <r>    1.6577    1.0000 </r>
       <r>    1.6598    1.0000 </r>
       <r>    1.6626    1.0000 </r>
       <r>    1.7147    1.0000 </r>
       <r>    1.7182    1.0000 </r>
       <r>    1.7182    1.0000 </r>
       <r>    2.2634    1.0000 </r>
       <r>    2.2667    1.0000 </r>
       <r>    2.2676    1.0000 </r>
       <r>    2.3675    1.0000 </r>
       <r>    2.3688    1.0000 </r>
       <r>    2.3693    1.0000 </r>
       <r>    2.3717    1.0000 </r>
       <r>    2.3775    1.0000 </r>
       <r>    2.3782    1.0000 </r>
       <r>    2.4217    1.0000 </r>
       <r>    2.4280    1.0000 </r>
       <r>    2.4312    1.0000 </r>
       <r>    2.7258    1.0000 </r>
       <r>    2.7330    1.0000 </r>
       <r>    2.7353    1.0000 </r>
       <r>    2.7358    1.0000 </r>
       <r>    2.7371    1.0000 </r>
       <r>    2.7417    1.0000 </r>
       <r>    2.9979    1.0000 </r>
       <r>    2.9999    1.0000 </r>
       <r>    3.0039    1.0000 </r>
       <r>    3.0094    1.0000 </r>
       <r>    3.0170    1.0000 </r>
       <r>    3.0172    1.0000 </r>
       <r>    3.3538    1.0000 </r>
       <r>    3.3625    1.0000 </r>
       <r>    3.3634    1.0000 </r>
       <r>    3.3770    1.0000 </r>
       <r>    3.3827    1.0000 </r>
       <r>    3.3851    1.0000 </r>
       <r>    3.4642    1.0000 </r>
       <r>    3.4683    1.0000 </r>
       <r>    3.4706    1.0000 </r>
       <r>    3.7286    1.0000 </r>
       <r>    3.7371    1.0000 </r>
       <r>    3.7388    1.0000 </r>
       <r>    3.7412    1.0000 </r>
       <r>    3.7426    1.0000 </r>
       <r>    3.7440    1.0000 </r>
       <r>    3.7781    1.0000 </r>
       <r>    3.7826    1.0000 </r>
       <r>    3.7850    1.0000 </r>
       <r>    4.0368    1.0000 </r>
       <r>    4.0976    1.0000 </r>
       <r>    4.0984    1.0000 </r>
       <r>    4.1045    1.0000 </r>
       <r>    4.3388    1.0000 </r>
       <r>    4.3434    1.0000 </r>
       <r>    4.3463    1.0000 </r>
       <r>    4.3963    1.0000 </r>
       <r>    4.4023    1.0000 </r>
       <r>    4.4057    1.0000 </r>
       <r>    4.5593    1.0000 </r>
       <r>    4.5686    1.0000 </r>
       <r>    4.8680    1.0000 </r>
       <r>    4.8732    1.0000 </r>
       <r>    4.8768    1.0000 </r>
       <r>    5.3466    1.0000 </r>
       <r>    5.3574    1.0000 </r>
       <r>    6.5600    0.0000 </r>
       <r>    6.5670    0.0000 </r>
       <r>    6.5680    0.0000 </r>
       <r>    6.9995    0.0000 </r>
       <r>    7.0060    0.0000 </r>
       <r>    7.0100    0.0000 </r>
       <r>    7.2351    0.0000 </r>
       <r>    7.4869    0.0000 </r>
       <r>    7.4929    0.0000 </r>
       <r>    7.4969    0.0000 </r>
       <r>    7.6155    0.0000 </r>
       <r>    7.6159    0.0000 </r>
       <r>    7.6234    0.0000 </r>
       <r>    7.7771    0.0000 </r>
       <r>    7.7784    0.0000 </r>
       <r>    7.7845    0.0000 </r>
       <r>    7.7980    0.0000 </r>
       <r>    7.8009    0.0000 </r>
       <r>    7.8075    0.0000 </r>
       <r>    8.0203    0.0000 </r>
       <r>    8.0255    0.0000 </r>
       <r>    8.0292    0.0000 </r>
       <r>    8.0311    0.0000 </r>
       <r>    8.0318    0.0000 </r>
       <r>    8.0351    0.0000 </r>
       <r>    8.0836    0.0000 </r>
       <r>    8.2919    0.0000 </r>
       <r>    8.2951    0.0000 </r>
       <r>    8.2988    0.0000 </r>
       <r>    8.4902    0.0000 </r>
       <r>    8.5003    0.0000 </r>
       <r>    8.5034    0.0000 </r>
       <r>    8.5048    0.0000 </r>
       <r>    8.5102    0.0000 </r>
       <r>    8.5199    0.0000 </r>
       <r>    8.5447    0.0000 </r>
      </set>
      <set comment="kpoint 2">
       <r>   -5.9931    1.0000 </r>
       <r>   -5.4688    1.0000 </r>
       <r>   -5.4632    1.0000 </r>
       <r>   -5.4627    1.0000 </r>
       <r>   -4.9696    1.0000 </r>
       <r>   -4.9638    1.0000 </r>
       <r>   -4.9630    1.0000 </r>
       <r>   -4.5311    1.0000 </r>
       <r>   -4.4363    1.0000 </r>
       <r>   -4.4308    1.0000 </r>
       <r>   -4.4295    1.0000 </r>
       <r>   -4.0261    1.0000 </r>
       <r>   -4.0221    1.0000 </r>
       <r>   -4.0159    1.0000 </r>
       <r>   -4.0158    1.0000 </r>
       <r>   -4.0115    1.0000 </r>
       <r>   -4.0101    1.0000 </r>
       <r>   -3.8313    1.0000 </r>
       <r>   -3.8219    1.0000 </r>
       <r>   -3.8215    1.0000 </r>
       <r>   -3.3318    1.0000 </r>
       <r>   -3.3264    1.0000 </r>
       <r>   -3.3216    1.0000 </r>
       <r>   -2.9666    1.0000 </r>
       <r>   -2.9565    1.0000 </r>
       <r>   -2.9557    1.0000 </r>
       <r>   -2.7993    1.0000 </r>
       <r>   -2.7963    1.0000 </r>
       <r>   -2.7904    1.0000 </r>
       <r>   -2.7902    1.0000 </r>
       <r>   -2.7857    1.0000 </r>
       <r>   -2.7848    1.0000 </r>
       <r>   -1.2605    1.0000 </r>
       <r>   -1.2483    1.0000 </r>
       <r>   -1.2481    1.0000 </r>
       <r>   -1.2478    1.0000 </r>
       <r>   -1.2446    1.0000 </r>
       <r>   -1.2416    1.0000 </r>
       <r>   -1.1567    1.0000 </r>
       <r>   -1.1473    1.0000 </r>
       <r>   -1.1461    1.0000 </r>
       <r>   -1.0377    1.0000 </r>
       <r>   -1.0310    1.0000 </r>
       <r>   -1.0246    1.0000 </r>
       <r>   -0.9578    1.0000 </r>
       <r>   -0.9497    1.0000 </r>
       <r>   -0.9448    1.0000 </r>
       <r>   -0.2481    1.0000 </r>
       <r>   -0.1717    1.0000 </r>
       <r>   -0.1603    1.0000 </r>
       <r>   -0.1597    1.0000 </r>
       <r>   -0.1575    1.0000 </r>
       <r>   -0.1515    1.0000 </r>
       <r>   -0.1514    1.0000 </r>
       <r>    0.7038    1.0000 </r>
       <r>    0.7145    1.0000 </r>
       <r>    0.7175    1.0000 </r>
       <r>    1.0415    1.0000 </r>
       <r>    1.0493    1.0000 </r>
       <r>    1.0505    1.0000 </r>
       <r>    1.6512    1.0000 </r>
       <r>    1.6561    1.0000 </r>
       <r>    1.6572    1.0000 </r>
       <r>    1.6575    1.0000 </r>
       <r>    1.6586    1.0000 </r>
       <r>    1.6615    1.0000 </r>
       <r>    1.7137    1.0000 </r>
       <r>    1.7184    1.0000 </r>
       <r>    1.7197    1.0000 </r>
       <r>    2.2626    1.0000 </r>
       <r>    2.2675    1.0000 </r>
       <r>    2.2676    1.0000 </r>
       <r>    2.3673    1.0000 </r>
       <r>    2.3681    1.0000 </r>
       <r>    2.3712    1.0000 </r>
       <r>    2.3728    1.0000 </r>
       <r>    2.3739    1.0000 </r>
       <r>    2.3783    1.0000 </r>
       <r>    2.4230    1.0000 </r>
       <r>    2.4272    1.0000 </r>
       <r>    2.4321    1.0000 </r>
       <r>    2.7263    1.0000 </r>
       <r>    2.7334    1.0000 </r>
       <r>    2.7350    1.0000 </r>
       <r>    2.7361    1.0000 </r>
       <r>    2.7371    1.0000 </r>
       <r>    2.7408    1.0000 </r>
       <r>    2.9980    1.0000 </r>
       <r>    3.0009    1.0000 </r>
       <r>    3.0023    1.0000 </r>
       <r>    3.0091    1.0000 </r>
       <r>    3.0172    1.0000 </r>
       <r>    3.0175    1.0000 </r>
       <r>    3.3550    1.0000 </r>
       <r>    3.3613    1.0000 </r>
       <r>    3.3633    1.0000 </r>
       <r>    3.3763    1.0000 </r>
       <r>    3.3835    1.0000 </r>
       <r>    3.3851    1.0000 </r>
       <r>    3.4642    1.0000 </r>
       <r>    3.4671    1.0000 </r>
       <r>    3.4718    1.0000 </r>
       <r>    3.7282    1.0000 </r>
       <r>    3.7359    1.0000 </r>
       <r>    3.7399    1.0000 </r>
       <r>    3.7414    1.0000 </r>
       <r>    3.7418    1.0000 </r>
       <r>    3.7445    1.0000 </r>
       <r>    3.7784    1.0000 </r>
       <r>    3.7812    1.0000 </r>
       <r>    3.7867    1.0000 </r>
       <r>    4.0369    1.0000 </r>
       <r>    4.0977    1.0000 </r>
       <r>    4.1001    1.0000 </r>
       <r>    4.1027    1.0000 </r>
       <r>    4.3387    1.0000 </r>
       <r>    4.3418    1.0000 </r>
       <r>    4.3476    1.0000 </r>
       <r>    4.3947    1.0000 </r>
       <r>    4.4039    1.0000 </r>
       <r>    4.4056    1.0000 </r>
       <r>    4.5593    1.0000 </r>
       <r>    4.5688    1.0000 </r>
       <r>    4.8680    1.0000 </r>
       <r>    4.8711    1.0000 </r>
       <r>    4.8791    1.0000 </r>
       <r>    5.3466    1.0000 </r>
       <r>    5.3574    1.0000 </r>
       <r>    6.5599    0.0000 </r>
       <r>    6.5670    0.0000 </r>
       <r>    6.5680    0.0000 </r>
       <r>    6.9996    0.0000 </r>
       <r>    7.0070    0.0000 </r>
       <r>    7.0090    0.0000 </r>
       <r>    7.2351    0.0000 </r>
       <r>    7.4868    0.0000 </r>
       <r>    7.4941    0.0000 </r>
       <r>    7.4958    0.0000 </r>
       <r>    7.6145    0.0000 </r>
       <r>    7.6159    0.0000 </r>
       <r>    7.6245    0.0000 </r>
       <r>    7.7773    0.0000 </r>
       <r>    7.7797    0.0000 </r>
       <r>    7.7842    0.0000 </r>
       <r>    7.7979    0.0000 </r>
       <r>    7.8027    0.0000 </r>
       <r>    7.8045    0.0000 </r>
       <r>    8.0192    0.0000 </r>
       <r>    8.0263    0.0000 </r>
       <r>    8.0282    0.0000 </r>
       <r>    8.0307    0.0000 </r>
       <r>    8.0320    0.0000 </r>
       <r>    8.0365    0.0000 </r>
       <r>    8.0836    0.0000 </r>
       <r>    8.2919    0.0000 </r>
       <r>    8.2961    0.0000 </r>
       <r>    8.2976    0.0000 </r>
       <r>    8.4898    0.0000 </r>
       <r>    8.4994    0.0000 </r>
       <r>    8.5022    0.0000 </r>
       <r>    8.5035    0.0000 </r>
       <r>    8.5119    0.0000 </r>
       <r>    8.5235    0.0000 </r>
       <r>    8.5391    0.0000 </r>
      </set>
      <set comment="kpoint 3">
       <r>   -5.9932    1.0000 </r>
       <r>   -5.4680    1.0000 </r>
       <r>   -5.4656    1.0000 </r>
       <r>   -5.4604    1.0000 </r>
       <r>   -4.9687    1.0000 </r>
       <r>   -4.9664    1.0000 </r>
       <r>   -4.9615    1.0000 </r>
       <r>   -4.5333    1.0000 </r>
       <r>   -4.4362    1.0000 </r>
       <r>   -4.4336    1.0000 </r>
       <r>   -4.4286    1.0000 </r>
       <r>   -4.0211    1.0000 </r>
       <r>   -4.0201    1.0000 </r>
       <r>   -4.0179    1.0000 </r>
       <r>   -4.0177    1.0000 </r>
       <r>   -4.0125    1.0000 </r>
       <r>   -4.0067    1.0000 </r>
       <r>   -3.8268    1.0000 </r>
       <r>   -3.8224    1.0000 </r>
       <r>   -3.8216    1.0000 </r>
       <r>   -3.3337    1.0000 </r>
       <r>   -3.3298    1.0000 </r>
       <r>   -3.3268    1.0000 </r>
       <r>   -2.9624    1.0000 </r>
       <r>   -2.9585    1.0000 </r>
       <r>   -2.9559    1.0000 </r>
       <r>   -2.7960    1.0000 </r>
       <r>   -2.7948    1.0000 </r>
       <r>   -2.7923    1.0000 </r>
       <r>   -2.7917    1.0000 </r>
       <r>   -2.7872    1.0000 </r>
       <r>   -2.7811    1.0000 </r>
       <r>   -1.2554    1.0000 </r>
       <r>   -1.2531    1.0000 </r>
       <r>   -1.2521    1.0000 </r>
       <r>   -1.2500    1.0000 </r>
       <r>   -1.2465    1.0000 </r>
       <r>   -1.2390    1.0000 </r>
       <r>   -1.1555    1.0000 </r>
       <r>   -1.1528    1.0000 </r>
       <r>   -1.1469    1.0000 </r>
       <r>   -1.0377    1.0000 </r>
       <r>   -1.0372    1.0000 </r>
       <r>   -1.0283    1.0000 </r>
       <r>   -0.9482    1.0000 </r>
       <r>   -0.9427    1.0000 </r>
       <r>   -0.9370    1.0000 </r>
       <r>   -0.2411    1.0000 </r>
       <r>   -0.1668    1.0000 </r>
       <r>   -0.1661    1.0000 </r>
       <r>   -0.1641    1.0000 </r>
       <r>   -0.1619    1.0000 </r>
       <r>   -0.1586    1.0000 </r>
       <r>   -0.1518    1.0000 </r>
       <r>    0.7123    1.0000 </r>
       <r>    0.7155    1.0000 </r>
       <r>    0.7219    1.0000 </r>
       <r>    1.0437    1.0000 </r>
       <r>    1.0455    1.0000 </r>
       <r>    1.0520    1.0000 </r>
       <r>    1.6514    1.0000 </r>
       <r>    1.6541    1.0000 </r>
       <r>    1.6570    1.0000 </r>
       <r>    1.6573    1.0000 </r>
       <r>    1.6603    1.0000 </r>
       <r>    1.6611    1.0000 </r>
       <r>    1.7131    1.0000 </r>
       <r>    1.7138    1.0000 </r>
       <r>    1.7180    1.0000 </r>
       <r>    2.2676    1.0000 </r>
       <r>    2.2689    1.0000 </r>
       <r>    2.2722    1.0000 </r>
       <r>    2.3634    1.0000 </r>
       <r>    2.3647    1.0000 </r>
       <r>    2.3705    1.0000 </r>
       <r>    2.3710    1.0000 </r>
       <r>    2.3733    1.0000 </r>
       <r>    2.3750    1.0000 </r>
       <r>    2.4192    1.0000 </r>
       <r>    2.4211    1.0000 </r>
       <r>    2.4280    1.0000 </r>
       <r>    2.7307    1.0000 </r>
       <r>    2.7322    1.0000 </r>
       <r>    2.7340    1.0000 </r>
       <r>    2.7356    1.0000 </r>
       <r>    2.7358    1.0000 </r>
       <r>    2.7422    1.0000 </r>
       <r>    2.9946    1.0000 </r>
       <r>    2.9990    1.0000 </r>
       <r>    2.9999    1.0000 </r>
       <r>    3.0103    1.0000 </r>
       <r>    3.0107    1.0000 </r>
       <r>    3.0169    1.0000 </r>
       <r>    3.3616    1.0000 </r>
       <r>    3.3620    1.0000 </r>
       <r>    3.3680    1.0000 </r>
       <r>    3.3847    1.0000 </r>
       <r>    3.3874    1.0000 </r>
       <r>    3.3899    1.0000 </r>
       <r>    3.4625    1.0000 </r>
       <r>    3.4653    1.0000 </r>
       <r>    3.4687    1.0000 </r>
       <r>    3.7391    1.0000 </r>
       <r>    3.7401    1.0000 </r>
       <r>    3.7420    1.0000 </r>
       <r>    3.7434    1.0000 </r>
       <r>    3.7471    1.0000 </r>
       <r>    3.7512    1.0000 </r>
       <r>    3.7760    1.0000 </r>
       <r>    3.7791    1.0000 </r>
       <r>    3.7836    1.0000 </r>
       <r>    4.0443    1.0000 </r>
       <r>    4.0920    1.0000 </r>
       <r>    4.0974    1.0000 </r>
       <r>    4.0979    1.0000 </r>
       <r>    4.3360    1.0000 </r>
       <r>    4.3392    1.0000 </r>
       <r>    4.3421    1.0000 </r>
       <r>    4.4060    1.0000 </r>
       <r>    4.4103    1.0000 </r>
       <r>    4.4152    1.0000 </r>
       <r>    4.5572    1.0000 </r>
       <r>    4.5665    1.0000 </r>
       <r>    4.8628    1.0000 </r>
       <r>    4.8675    1.0000 </r>
       <r>    4.8718    1.0000 </r>
       <r>    5.3421    1.0000 </r>
       <r>    5.3527    1.0000 </r>
       <r>    6.5590    0.0000 </r>
       <r>    6.5631    0.0000 </r>
       <r>    6.5632    0.0000 </r>
       <r>    6.9985    0.0000 </r>
       <r>    7.0043    0.0000 </r>
       <r>    7.0082    0.0000 </r>
       <r>    7.2323    0.0000 </r>
       <r>    7.4843    0.0000 </r>
       <r>    7.4898    0.0000 </r>
       <r>    7.4935    0.0000 </r>
       <r>    7.6186    0.0000 </r>
       <r>    7.6195    0.0000 </r>
       <r>    7.6246    0.0000 </r>
       <r>    7.7741    0.0000 </r>
       <r>    7.7814    0.0000 </r>
       <r>    7.7818    0.0000 </r>
       <r>    7.7980    0.0000 </r>
       <r>    7.8019    0.0000 </r>
       <r>    7.8024    0.0000 </r>
       <r>    8.0262    0.0000 </r>
       <r>    8.0284    0.0000 </r>
       <r>    8.0313    0.0000 </r>
       <r>    8.0325    0.0000 </r>
       <r>    8.0350    0.0000 </r>
       <r>    8.0398    0.0000 </r>
       <r>    8.0794    0.0000 </r>
       <r>    8.2909    0.0000 </r>
       <r>    8.2958    0.0000 </r>
       <r>    8.2975    0.0000 </r>
       <r>    8.4954    0.0000 </r>
       <r>    8.4989    0.0000 </r>
       <r>    8.5021    0.0000 </r>
       <r>    8.5034    0.0000 </r>
       <r>    8.5103    0.0000 </r>
       <r>    8.5161    0.0000 </r>
       <r>    8.5425    0.0000 </r>
      </set>
     </set>
    </set>
   </array>
  </eigenvalues>
  <separator name="orbital magnetization" >
   <v name="MAGDIPOLOUT">      0.00000000      0.00000000      0.00000000</v>
  </separator>
  <dos>
   <i name="efermi">      5.59681932 </i>
   <total>
    <array>
     <dimension dim="1">gridpoints</dimension>
     <dimension dim="2">spin</dimension>
     <field>energy</field>
     <field>total</field>
     <field>integrated</field>
     <set>
      <set comment="spin 1">
       <r>    -6.7201     0.0000     0.0000 </r>
       <r>    -6.6668     0.0000     0.0000 </r>
       <r>    -6.6135     0.0000     0.0000 </r>
       <r>    -6.5602     0.0000     0.0000 </r>
       <r>    -6.5069     0.0000     0.0000 </r>
       <r>    -6.4536     0.0000     0.0000 </r>
       <r>    -6.4003     0.0000     0.0000 </r>
       <r>    -6.3470     0.0000     0.0000 </r>
       <r>    -6.2937     0.0000     0.0000 </r>
       <r>    -6.2404     0.0000     0.0000 </r>
       <r>    -6.1871     0.0000     0.0000 </r>
       <r>    -6.1338     0.0013     0.0001 </r>
       <r>    -6.0805     0.2529     0.0136 </r>
       <r>    -6.0272     6.0572     0.3364 </r>
       <r>    -5.9739    20.2385     1.4153 </r>
       <r>    -5.9206    10.2200     1.9600 </r>
       <r>    -5.8673     0.7427     1.9996 </r>
       <r>    -5.8139     0.0069     2.0000 </r>
       <r>    -5.7606     0.0000     2.0000 </r>
       <r>    -5.7073     0.0000     2.0000 </r>
       <r>    -5.6540     0.0000     2.0000 </r>
       <r>    -5.6007     0.0072     2.0004 </r>
       <r>    -5.5474     1.1141     2.0598 </r>
       <r>    -5.4941    21.8731     3.2257 </r>
       <r>    -5.4408    61.4430     6.5010 </r>
       <r>    -5.3875    26.4597     7.9115 </r>
       <r>    -5.3342     1.6478     7.9993 </r>
       <r>    -5.2809     0.0132     8.0000 </r>
       <r>    -5.2276     0.0000     8.0000 </r>
       <r>    -5.1743     0.0000     8.0000 </r>
       <r>    -5.1210     0.0007     8.0000 </r>
       <r>    -5.0677     0.2249     8.0120 </r>
       <r>    -5.0144     9.2775     8.5066 </r>
       <r>    -4.9611    52.4083    11.3002 </r>
       <r>    -4.9077    44.8148    13.6891 </r>
       <r>    -4.8544     5.7334    13.9947 </r>
       <r>    -4.8011     0.0984    14.0000 </r>
       <r>    -4.7478     0.0002    14.0000 </r>
       <r>    -4.6945     0.0001    14.0000 </r>
       <r>    -4.6412     0.0386    14.0021 </r>
       <r>    -4.5879     2.1292    14.1156 </r>
       <r>    -4.5346    15.8189    14.9588 </r>
       <r>    -4.4813    26.2259    16.3568 </r>
       <r>    -4.4280    55.1302    19.2955 </r>
       <r>    -4.3747    44.8870    21.6883 </r>
       <r>    -4.3214     5.7485    21.9947 </r>
       <r>    -4.2681     0.0990    22.0000 </r>
       <r>    -4.2148     0.0002    22.0000 </r>
       <r>    -4.1615     0.0055    22.0003 </r>
       <r>    -4.1082     1.1486    22.0615 </r>
       <r>    -4.0549    30.6300    23.6943 </r>
       <r>    -4.0015   117.1791    29.9406 </r>
       <r>    -3.9482    69.8534    33.6642 </r>
       <r>    -3.8949     8.8574    34.1363 </r>
       <r>    -3.8416    32.6199    35.8752 </r>
       <r>    -3.7883    59.8372    39.0648 </r>
       <r>    -3.7350    16.8691    39.9641 </r>
       <r>    -3.6817     0.6709    39.9998 </r>
       <r>    -3.6284     0.0033    40.0000 </r>
       <r>    -3.5751     0.0000    40.0000 </r>
       <r>    -3.5218     0.0000    40.0000 </r>
       <r>    -3.4685     0.0046    40.0002 </r>
       <r>    -3.4152     0.8175    40.0438 </r>
       <r>    -3.3619    18.6339    41.0371 </r>
       <r>    -3.3086    60.5513    44.2648 </r>
       <r>    -3.2553    30.3023    45.8801 </r>
       <r>    -3.2020     2.2272    45.9989 </r>
       <r>    -3.1487     0.0214    46.0000 </r>
       <r>    -3.0954     0.0072    46.0004 </r>
       <r>    -3.0420     1.1068    46.0594 </r>
       <r>    -2.9887    21.7564    47.2191 </r>
       <r>    -2.9354    61.3980    50.4920 </r>
       <r>    -2.8821    27.8010    51.9739 </r>
       <r>    -2.8288    32.8521    53.7252 </r>
       <r>    -2.7755   117.5344    59.9904 </r>
       <r>    -2.7222    69.0522    63.6713 </r>
       <r>    -2.6689     6.0941    63.9961 </r>
       <r>    -2.6156     0.0722    64.0000 </r>
       <r>    -2.5623     0.0001    64.0000 </r>
       <r>    -2.5090     0.0000    64.0000 </r>
       <r>    -2.4557     0.0000    64.0000 </r>
       <r>    -2.4024     0.0000    64.0000 </r>
       <r>    -2.3491     0.0000    64.0000 </r>
       <r>    -2.2958     0.0000    64.0000 </r>
       <r>    -2.2425     0.0000    64.0000 </r>
       <r>    -2.1892     0.0000    64.0000 </r>
       <r>    -2.1358     0.0000    64.0000 </r>
       <r>    -2.0825     0.0000    64.0000 </r>
       <r>    -2.0292     0.0000    64.0000 </r>
       <r>    -1.9759     0.0000    64.0000 </r>
       <r>    -1.9226     0.0000    64.0000 </r>
       <r>    -1.8693     0.0000    64.0000 </r>
       <r>    -1.8160     0.0000    64.0000 </r>
       <r>    -1.7627     0.0000    64.0000 </r>
       <r>    -1.7094     0.0000    64.0000 </r>
       <r>    -1.6561     0.0000    64.0000 </r>
       <r>    -1.6028     0.0000    64.0000 </r>
       <r>    -1.5495     0.0000    64.0000 </r>
       <r>    -1.4962     0.0000    64.0000 </r>
       <r>    -1.4429     0.0000    64.0000 </r>
       <r>    -1.3896     0.0097    64.0005 </r>
       <r>    -1.3363     1.6494    64.0884 </r>
       <r>    -1.2830    36.8109    66.0507 </r>
       <r>    -1.2296   121.6473    72.5352 </r>
       <r>    -1.1763    86.8826    77.1665 </r>
       <r>    -1.1230    66.8881    80.7320 </r>
       <r>    -1.0697    39.4588    82.8354 </r>
       <r>    -1.0164    63.3666    86.2132 </r>
       <r>    -0.9631    67.0818    89.7891 </r>
       <r>    -0.9098    61.8431    93.0857 </r>
       <r>    -0.8565    16.4786    93.9641 </r>
       <r>    -0.8032     0.6705    93.9998 </r>
       <r>    -0.7499     0.0036    94.0000 </r>
       <r>    -0.6966     0.0000    94.0000 </r>
       <r>    -0.6433     0.0000    94.0000 </r>
       <r>    -0.5900     0.0000    94.0000 </r>
       <r>    -0.5367     0.0000    94.0000 </r>
       <r>    -0.4834     0.0000    94.0000 </r>
       <r>    -0.4301     0.0000    94.0000 </r>
       <r>    -0.3768     0.0037    94.0002 </r>
       <r>    -0.3235     0.4926    94.0265 </r>
       <r>    -0.2701     8.5964    94.4847 </r>
       <r>    -0.2168    33.0309    96.2454 </r>
       <r>    -0.1635    98.9643   101.5208 </r>
       <r>    -0.1102   103.1042   107.0168 </r>
       <r>    -0.0569    17.9971   107.9762 </r>
       <r>    -0.0036     0.4451   107.9999 </r>
       <r>     0.0497     0.0014   108.0000 </r>
       <r>     0.1030     0.0000   108.0000 </r>
       <r>     0.1563     0.0000   108.0000 </r>
       <r>     0.2096     0.0000   108.0000 </r>
       <r>     0.2629     0.0000   108.0000 </r>
       <r>     0.3162     0.0000   108.0000 </r>
       <r>     0.3695     0.0000   108.0000 </r>
       <r>     0.4228     0.0000   108.0000 </r>
       <r>     0.4761     0.0000   108.0000 </r>
       <r>     0.5294     0.0000   108.0000 </r>
       <r>     0.5827     0.0135   108.0007 </r>
       <r>     0.6361     1.6102   108.0866 </r>
       <r>     0.6894    25.7322   109.4582 </r>
       <r>     0.7427    61.1549   112.7181 </r>
       <r>     0.7960    22.7944   113.9332 </r>
       <r>     0.8493     1.2442   113.9995 </r>
       <r>     0.9026     0.0115   114.0001 </r>
       <r>     0.9559     0.5773   114.0309 </r>
       <r>     1.0092    15.5394   114.8593 </r>
       <r>     1.0625    59.0273   118.0058 </r>
       <r>     1.1158    34.4145   119.8402 </r>
       <r>     1.1691     2.9633   119.9982 </r>
       <r>     1.2224     0.0336   120.0000 </r>
       <r>     1.2757     0.0000   120.0000 </r>
       <r>     1.3290     0.0000   120.0000 </r>
       <r>     1.3823     0.0000   120.0000 </r>
       <r>     1.4356     0.0000   120.0000 </r>
       <r>     1.4889     0.0003   120.0000 </r>
       <r>     1.5422     0.1396   120.0075 </r>
       <r>     1.5956     9.3397   120.5053 </r>
       <r>     1.6489    86.0423   125.0919 </r>
       <r>     1.7022   145.8586   132.8670 </r>
       <r>     1.7555    80.6981   137.1686 </r>
       <r>     1.8088    15.0937   137.9732 </r>
       <r>     1.8621     0.5001   137.9999 </r>
       <r>     1.9154     0.0021   138.0000 </r>
       <r>     1.9687     0.0000   138.0000 </r>
       <r>     2.0220     0.0000   138.0000 </r>
       <r>     2.0753     0.0000   138.0000 </r>
       <r>     2.1286     0.0049   138.0003 </r>
       <r>     2.1819     0.8693   138.0466 </r>
       <r>     2.2352    19.3705   139.0792 </r>
       <r>     2.2885    63.2994   142.4534 </r>
       <r>     2.3418    74.7992   146.4406 </r>
       <r>     2.3951   146.2219   154.2351 </r>
       <r>     2.4484   113.6621   160.2939 </r>
       <r>     2.5018    30.2245   161.9051 </r>
       <r>     2.5551     1.7663   161.9992 </r>
       <r>     2.6084     0.0572   162.0023 </r>
       <r>     2.6617     4.4126   162.2375 </r>
       <r>     2.7150    60.2467   165.4490 </r>
       <r>     2.7683   121.1253   171.9057 </r>
       <r>     2.8216    37.6085   173.9104 </r>
       <r>     2.8749     1.7023   174.0011 </r>
       <r>     2.9282     3.4418   174.1846 </r>
       <r>     2.9815    51.9526   176.9540 </r>
       <r>     3.0348   120.9996   183.4040 </r>
       <r>     3.0881    45.9940   185.8557 </r>
       <r>     3.1414     2.6854   185.9989 </r>
       <r>     3.1947     0.0216   186.0000 </r>
       <r>     3.2480     0.0849   186.0045 </r>
       <r>     3.3013     6.0215   186.3255 </r>
       <r>     3.3546    63.8247   189.7277 </r>
       <r>     3.4080   121.0497   196.1804 </r>
       <r>     3.4613    81.6485   200.5327 </r>
       <r>     3.5146    55.1041   203.4701 </r>
       <r>     3.5679     9.6986   203.9871 </r>
       <r>     3.6212     0.3319   204.0048 </r>
       <r>     3.6745     7.0524   204.3807 </r>
       <r>     3.7278    80.0368   208.6471 </r>
       <r>     3.7811   164.7859   217.4312 </r>
       <r>     3.8344    77.3015   221.5518 </r>
       <r>     3.8877     8.2574   221.9919 </r>
       <r>     3.9410     0.2469   222.0051 </r>
       <r>     3.9943     3.7266   222.2038 </r>
       <r>     4.0476    26.6907   223.6265 </r>
       <r>     4.1009    65.3530   227.1102 </r>
       <r>     4.1542    47.8173   229.6592 </r>
       <r>     4.2075     6.2893   229.9944 </r>
       <r>     4.2608     1.4679   230.0727 </r>
       <r>     4.3141    24.6090   231.3845 </r>
       <r>     4.3675    76.8958   235.4834 </r>
       <r>     4.4208    82.5906   239.8860 </r>
       <r>     4.4741    36.8867   241.8523 </r>
       <r>     4.5274    14.7044   242.6361 </r>
       <r>     4.5807    39.8889   244.7624 </r>
       <r>     4.6340    21.4752   245.9072 </r>
       <r>     4.6873     1.7232   245.9990 </r>
       <r>     4.7406     0.0343   246.0008 </r>
       <r>     4.7939     1.8275   246.0983 </r>
       <r>     4.8472    27.5330   247.5659 </r>
       <r>     4.9005    61.0582   250.8207 </r>
       <r>     4.9538    21.0613   251.9434 </r>
       <r>     5.0071     1.0554   251.9996 </r>
       <r>     5.0604     0.0069   252.0000 </r>
       <r>     5.1137     0.0000   252.0000 </r>
       <r>     5.1670     0.0000   252.0000 </r>
       <r>     5.2203     0.0114   252.0006 </r>
       <r>     5.2737     1.2553   252.0675 </r>
       <r>     5.3270    18.4484   253.0509 </r>
       <r>     5.3803    40.5450   255.2122 </r>
       <r>     5.4336    14.0562   255.9615 </r>
       <r>     5.4869     0.7177   255.9997 </r>
       <r>     5.5402     0.0048   256.0000 </r>
       <r>     5.5935     0.0000   256.0000 </r>
       <r>     5.6468     0.0000   256.0000 </r>
       <r>     5.7001     0.0000   256.0000 </r>
       <r>     5.7534     0.0000   256.0000 </r>
       <r>     5.8067     0.0000   256.0000 </r>
       <r>     5.8600     0.0000   256.0000 </r>
       <r>     5.9133     0.0000   256.0000 </r>
       <r>     5.9666     0.0000   256.0000 </r>
       <r>     6.0199     0.0000   256.0000 </r>
       <r>     6.0732     0.0000   256.0000 </r>
       <r>     6.1265     0.0000   256.0000 </r>
       <r>     6.1799     0.0000   256.0000 </r>
       <r>     6.2332     0.0000   256.0000 </r>
       <r>     6.2865     0.0000   256.0000 </r>
       <r>     6.3398     0.0000   256.0000 </r>
       <r>     6.3931     0.0001   256.0000 </r>
       <r>     6.4464     0.0552   256.0029 </r>
       <r>     6.4997     4.0424   256.2184 </r>
       <r>     6.5530    39.2197   258.3091 </r>
       <r>     6.6063    56.4709   261.3193 </r>
       <r>     6.6596    12.3907   261.9798 </r>
       <r>     6.7129     0.3778   261.9999 </r>
       <r>     6.7662     0.0014   262.0000 </r>
       <r>     6.8195     0.0000   262.0000 </r>
       <r>     6.8728     0.0123   262.0007 </r>
       <r>     6.9261     1.5555   262.0836 </r>
       <r>     6.9794    25.5909   263.4477 </r>
       <r>     7.0327    61.3958   266.7205 </r>
       <r>     7.0860    22.7747   267.9345 </r>
       <r>     7.1394     1.3645   268.0072 </r>
       <r>     7.1927     4.4812   268.2461 </r>
       <r>     7.2460    19.2289   269.2711 </r>
       <r>     7.2993    12.4757   269.9361 </r>
       <r>     7.3526     1.1894   269.9995 </r>
       <r>     7.4059     0.9752   270.0515 </r>
       <r>     7.4592    20.1777   271.1271 </r>
       <r>     7.5125    61.1165   274.3850 </r>
       <r>     7.5658    35.6690   276.2863 </r>
       <r>     7.6191    50.3175   278.9685 </r>
       <r>     7.6724    49.3141   281.5973 </r>
       <r>     7.7257    16.4986   282.4767 </r>
       <r>     7.7790    76.3127   286.5447 </r>
       <r>     7.8323   110.5813   292.4393 </r>
       <r>     7.8856    28.1412   293.9394 </r>
       <r>     7.9389     2.2997   294.0619 </r>
       <r>     7.9922    31.0317   295.7161 </r>
       <r>     8.0456   122.9296   302.2690 </r>
       <r>     8.0989    89.5538   307.0427 </r>
       <r>     8.1522    17.0252   307.9502 </r>
       <r>     8.2055     1.5769   308.0343 </r>
       <r>     8.2588    16.6423   308.9214 </r>
       <r>     8.3121    59.8277   312.1106 </r>
       <r>     8.3654    32.8075   313.8594 </r>
       <r>     8.4187     4.6338   314.1064 </r>
       <r>     8.4720    40.4809   316.2643 </r>
       <r>     8.5253   130.4084   323.2158 </r>
       <r>     8.5786    79.2965   327.4428 </r>
       <r>     8.6319    10.1875   327.9858 </r>
       <r>     8.6852     0.2647   327.9999 </r>
       <r>     8.7385     0.0011   328.0000 </r>
       <r>     8.7918     0.0000   328.0000 </r>
       <r>     8.8451     0.0000   328.0000 </r>
       <r>     8.8984     0.0000   328.0000 </r>
       <r>     8.9518     0.0000   328.0000 </r>
       <r>     9.0051     0.0000   328.0000 </r>
       <r>     9.0584     0.0000   328.0000 </r>
       <r>     9.1117     0.0000   328.0000 </r>
       <r>     9.1650     0.0000   328.0000 </r>
       <r>     9.2183     0.0000   328.0000 </r>
       <r>     9.2716     0.0000   328.0000 </r>
      </set>
     </set>
    </array>
   </total>
  </dos>
 </calculation>
 <structure name="finalpos" >
  <crystal>
   <varray name="basis" >
    <v>      10.93252578       0.00000000       0.00000000 </v>
    <v>       0.00000000      10.93252578       0.00000000 </v>
    <v>       0.00000000       0.00000000      10.93252578 </v>
   </varray>
   <i name="volume">   1306.65679237 </i>
   <varray name="rec_basis" >
    <v>       0.09147017       0.00000000       0.00000000 </v>
    <v>       0.00000000       0.09147017       0.00000000 </v>
    <v>       0.00000000       0.00000000       0.09147017 </v>
   </varray>
  </crystal>
  <varray name="positions" >
   <v>       0.44024411       0.43750000       0.43750000 </v>
   <v>       0.93750000       0.43750000       0.43750000 </v>
   <v>       0.43750000       0.93750000       0.43750000 </v>
   <v>       0.93750000       0.93750000       0.43750000 </v>
   <v>       0.43750000       0.43750000       0.93750000 </v>
   <v>       0.93750000       0.43750000       0.93750000 </v>
   <v>       0.43750000       0.93750000       0.93750000 </v>
   <v>       0.93750000       0.93750000       0.93750000 </v>
   <v>       0.43750000       0.18750000       0.18750000 </v>
   <v>       0.93750000       0.18750000       0.18750000 </v>
   <v>       0.43750000       0.68750000       0.18750000 </v>
   <v>       0.93750000       0.68750000       0.18750000 </v>
   <v>       0.43750000       0.18750000       0.68750000 </v>
   <v>       0.93750000       0.18750000       0.68750000 </v>
   <v>       0.43750000       0.68750000       0.68750000 </v>
   <v>       0.93750000       0.68750000       0.68750000 </v>
   <v>       0.18750000       0.43750000       0.18750000 </v>
   <v>       0.68750000       0.43750000       0.18750000 </v>
   <v>       0.18750000       0.93750000       0.18750000 </v>
   <v>       0.68750000       0.93750000       0.18750000 </v>
   <v>       0.18750000       0.43750000       0.68750000 </v>
   <v>       0.68750000       0.43750000       0.68750000 </v>
   <v>       0.18750000       0.93750000       0.68750000 </v>
   <v>       0.68750000       0.93750000       0.68750000 </v>
   <v>       0.18750000       0.18750000       0.43750000 </v>
   <v>       0.68750000       0.18750000       0.43750000 </v>
   <v>       0.18750000       0.68750000       0.43750000 </v>
   <v>       0.68750000       0.68750000       0.43750000 </v>
   <v>       0.18750000       0.18750000       0.93750000 </v>
   <v>       0.68750000       0.18750000       0.93750000 </v>
   <v>       0.18750000       0.68750000       0.93750000 </v>
   <v>       0.68750000       0.68750000       0.93750000 </v>
   <v>       0.06250000       0.06250000       0.06250000 </v>
   <v>       0.56250000       0.06250000       0.06250000 </v>
   <v>       0.06250000       0.56250000       0.06250000 </v>
   <v>       0.56250000       0.56250000       0.06250000 </v>
   <v>       0.06250000       0.06250000       0.56250000 </v>
   <v>       0.56250000       0.06250000       0.56250000 </v>
   <v>       0.05975589       0.56250000       0.56250000 </v>
   <v>       0.56250000       0.56250000       0.56250000 </v>
   <v>       0.06250000       0.31250000       0.31250000 </v>
   <v>       0.56250000       0.31250000       0.31250000 </v>
   <v>       0.06250000       0.81250000       0.31250000 </v>
   <v>       0.56250000       0.81250000       0.31250000 </v>
   <v>       0.06250000       0.31250000       0.81250000 </v>
   <v>       0.56250000       0.31250000       0.81250000 </v>
   <v>       0.06250000       0.81250000       0.81250000 </v>
   <v>       0.56250000       0.81250000       0.81250000 </v>
   <v>       0.31250000       0.06250000       0.31250000 </v>
   <v>       0.81250000       0.06250000       0.31250000 </v>
   <v>       0.31250000       0.56250000       0.31250000 </v>
   <v>       0.81250000       0.56250000       0.31250000 </v>
   <v>       0.31250000       0.06250000       0.81250000 </v>
   <v>       0.81250000       0.06250000       0.81250000 </v>
   <v>       0.31250000       0.56250000       0.81250000 </v>
   <v>       0.81250000       0.56250000       0.81250000 </v>
   <v>       0.31250000       0.31250000       0.06250000 </v>
   <v>       0.81250000       0.31250000       0.06250000 </v>
   <v>       0.31250000       0.81250000       0.06250000 </v>
   <v>       0.81250000       0.81250000       0.06250000 </v>
   <v>       0.31250000       0.31250000       0.56250000 </v>
   <v>       0.81250000       0.31250000       0.56250000 </v>
   <v>       0.31250000       0.81250000       0.56250000 </v>
   <v>       0.81250000       0.81250000       0.56250000 </v>
  </varray>
 </structure>
</modeling>
