<?xml version="1.0" encoding="ISO-8859-1"?>
<modeling>
 <generator>
  <i name="program" type="string">vasp </i>
  <i name="version" type="string">5.4.1  </i>
  <i name="subversion" type="string">05Feb16 (build Mar 26 2016 11:58:25) complex                          parallel </i>
  <i name="platform" type="string">IFC91_ompi </i>
  <i name="date" type="string">2017 03 12 </i>
  <i name="time" type="string">12:17:11 </i>
 </generator>
 <incar>
  <i type="string" name="PREC">accurate</i>
  <i type="int" name="IALGO">    38</i>
  <i type="logical" name="ADDGRID"> T  </i>
  <i type="int" name="NELMIN">     5</i>
  <i type="int" name="IBRION">    -1</i>
  <i name="EDIFF">      0.00000001</i>
  <i name="ENCUT">    300.00000000</i>
  <i type="logical" name="LREAL"> F  </i>
  <i type="int" name="ISMEAR">     0</i>
  <i name="SIGMA">      0.05000000</i>
  <i type="logical" name="LWAVE"> F  </i>
  <i type="logical" name="LCHARG"> F  </i>
  <v type="int" name="KPOINT_BSE">    -1     0     0     0</v>
 </incar>
 <kpoints>
  <generation param="Monkhorst-Pack">
   <v type="int" name="divisions">       2        2        2 </v>
   <v name="usershift">      0.00000000       0.00000000       0.00000000 </v>
   <v name="genvec1">      0.50000000       0.00000000       0.00000000 </v>
   <v name="genvec2">      0.00000000       0.50000000       0.00000000 </v>
   <v name="genvec3">      0.00000000       0.00000000       0.50000000 </v>
   <v name="shift">      0.50000000       0.50000000       0.50000000 </v>
  </generation>
  <varray name="kpointlist" >
   <v>       0.25000000       0.25000000       0.25000000 </v>
   <v>      -0.25000000       0.25000000       0.25000000 </v>
   <v>       0.25000000      -0.25000000       0.25000000 </v>
  </varray>
  <varray name="weights" >
   <v>       0.25000000 </v>
   <v>       0.50000000 </v>
   <v>       0.25000000 </v>
  </varray>
 </kpoints>
 <parameters>
  <separator name="general" >
   <i type="string" name="SYSTEM">unknown system</i>
   <i type="logical" name="LCOMPAT"> F  </i>
  </separator>
  <separator name="electronic" >
   <i type="string" name="PREC">accura</i>
   <i name="ENMAX">    300.00000000</i>
   <i name="ENAUG">    322.06900000</i>
   <i name="EDIFF">      0.00000001</i>
   <i type="int" name="IALGO">    38</i>
   <i type="int" name="IWAVPR">    10</i>
   <i type="int" name="NBANDS">   164</i>
   <i name="NELECT">    256.00000000</i>
   <i type="int" name="TURBO">     0</i>
   <i type="int" name="IRESTART">     0</i>
   <i type="int" name="NREBOOT">     0</i>
   <i type="int" name="NMIN">     0</i>
   <i name="EREF">      0.00000000</i>
   <separator name="electronic smearing" >
    <i type="int" name="ISMEAR">     0</i>
    <i name="SIGMA">      0.05000000</i>
    <i name="KSPACING">      0.50000000</i>
    <i type="logical" name="KGAMMA"> T  </i>
   </separator>
   <separator name="electronic projectors" >
    <i type="logical" name="LREAL"> F  </i>
    <v name="ROPT">      0.00000000</v>
    <i type="int" name="LMAXPAW">  -100</i>
    <i type="int" name="LMAXMIX">     2</i>
    <i type="logical" name="NLSPLINE"> F  </i>
   </separator>
   <separator name="electronic startup" >
    <i type="int" name="ISTART">     0</i>
    <i type="int" name="ICHARG">     2</i>
    <i type="int" name="INIWAV">     1</i>
   </separator>
   <separator name="electronic spin" >
    <i type="int" name="ISPIN">     1</i>
    <i type="logical" name="LNONCOLLINEAR"> F  </i>
    <v name="MAGMOM">      1.00000000      1.00000000      1.00000000      1.00000000      1.00000000      1.00000000      1.00000000      1.00000000      1.00000000      1.00000000      1.00000000      1.00000000      1.00000000      1.00000000      1.00000000      1.00000000      1.00000000      1.00000000      1.00000000      1.00000000
      1.00000000      1.00000000      1.00000000      1.00000000      1.00000000      1.00000000      1.00000000      1.00000000      1.00000000      1.00000000      1.00000000      1.00000000      1.00000000      1.00000000      1.00000000      1.00000000      1.00000000      1.00000000      1.00000000      1.00000000
      1.00000000      1.00000000      1.00000000      1.00000000      1.00000000      1.00000000      1.00000000      1.00000000      1.00000000      1.00000000      1.00000000      1.00000000      1.00000000      1.00000000      1.00000000      1.00000000      1.00000000      1.00000000      1.00000000      1.00000000
      1.00000000      1.00000000      1.00000000      1.00000000</v>
    <i name="NUPDOWN">     -1.00000000</i>
    <i type="logical" name="LSORBIT"> F  </i>
    <v name="SAXIS">      0.00000000      0.00000000      1.00000000</v>
    <i type="logical" name="LSPIRAL"> F  </i>
    <v name="QSPIRAL">      0.00000000      0.00000000      0.00000000</v>
    <i type="logical" name="LZEROZ"> F  </i>
   </separator>
   <separator name="electronic exchange-correlation" >
    <i type="logical" name="LASPH"> F  </i>
    <i type="logical" name="LMETAGGA"> F  </i>
   </separator>
   <separator name="electronic convergence" >
    <i type="int" name="NELM">    60</i>
    <i type="int" name="NELMDL">    -5</i>
    <i type="int" name="NELMIN">     5</i>
    <i name="ENINI">    300.00000000</i>
    <separator name="electronic convergence detail" >
     <i type="logical" name="LDIAG"> T  </i>
     <i type="logical" name="LSUBROT"> F  </i>
     <i name="WEIMIN">      0.00000000</i>
     <i name="EBREAK">      0.00000000</i>
     <i name="DEPER">      0.30000000</i>
     <i type="int" name="NRMM">     4</i>
     <i name="TIME">      0.40000000</i>
    </separator>
   </separator>
   <separator name="electronic mixer" >
    <i name="AMIX">      0.40000000</i>
    <i name="BMIX">      1.00000000</i>
    <i name="AMIN">      0.10000000</i>
    <i name="AMIX_MAG">      1.60000000</i>
    <i name="BMIX_MAG">      1.00000000</i>
    <separator name="electronic mixer details" >
     <i type="int" name="IMIX">     4</i>
     <i type="logical" name="MIXFIRST"> F  </i>
     <i type="int" name="MAXMIX">   -45</i>
     <i name="WC">    100.00000000</i>
     <i type="int" name="INIMIX">     1</i>
     <i type="int" name="MIXPRE">     1</i>
     <i type="int" name="MREMOVE">     5</i>
    </separator>
   </separator>
   <separator name="electronic dipolcorrection" >
    <i type="logical" name="LDIPOL"> F  </i>
    <i type="logical" name="LMONO"> F  </i>
    <i type="int" name="IDIPOL">     0</i>
    <i name="EPSILON">      1.00000000</i>
    <v name="DIPOL">   -100.00000000   -100.00000000   -100.00000000</v>
    <i name="EFIELD">      0.00000000</i>
   </separator>
  </separator>
  <separator name="grids" >
   <i type="int" name="NGX">    64</i>
   <i type="int" name="NGY">    64</i>
   <i type="int" name="NGZ">    64</i>
   <i type="int" name="NGXF">   128</i>
   <i type="int" name="NGYF">   128</i>
   <i type="int" name="NGZF">   128</i>
   <i type="logical" name="ADDGRID"> T  </i>
  </separator>
  <separator name="ionic" >
   <i type="int" name="NSW">     0</i>
   <i type="int" name="IBRION">    -1</i>
   <i type="int" name="ISIF">     2</i>
   <i name="PSTRESS">      0.00000000</i>
   <i name="EDIFFG">      0.00000010</i>
   <i type="int" name="NFREE">     0</i>
   <i name="POTIM">      0.50000000</i>
   <i name="SMASS">     -3.00000000</i>
   <i name="SCALEE">      1.00000000</i>
  </separator>
  <separator name="ionic md" >
   <i name="TEBEG">      0.00010000</i>
   <i name="TEEND">      0.00010000</i>
   <i type="int" name="NBLOCK">     1</i>
   <i type="int" name="KBLOCK">     1</i>
   <i type="int" name="NPACO">   256</i>
   <i name="APACO">     16.00000000</i>
  </separator>
  <separator name="symmetry" >
   <i type="int" name="ISYM">     2</i>
   <i name="SYMPREC">      0.00001000</i>
  </separator>
  <separator name="dos" >
   <i type="logical" name="LORBIT"> F  </i>
   <v name="RWIGS">     -1.00000000</v>
   <i type="int" name="NEDOS">   301</i>
   <i name="EMIN">     10.00000000</i>
   <i name="EMAX">    -10.00000000</i>
   <i name="EFERMI">      0.00000000</i>
  </separator>
  <separator name="writing" >
   <i type="int" name="NWRITE">     2</i>
   <i type="logical" name="LWAVE"> F  </i>
   <i type="logical" name="LCHARG"> F  </i>
   <i type="logical" name="LPARD"> F  </i>
   <i type="logical" name="LVTOT"> F  </i>
   <i type="logical" name="LVHAR"> F  </i>
   <i type="logical" name="LELF"> F  </i>
   <i type="logical" name="LOPTICS"> F  </i>
   <v name="STM">      0.00000000      0.00000000      0.00000000      0.00000000      0.00000000      0.00000000      0.00000000</v>
  </separator>
  <separator name="performance" >
   <i type="int" name="NPAR">     4</i>
   <i type="int" name="NSIM">     4</i>
   <i type="int" name="NBLK">    -1</i>
   <i type="logical" name="LPLANE"> T  </i>
   <i type="logical" name="LSCALAPACK"> T  </i>
   <i type="logical" name="LSCAAWARE"> F  </i>
   <i type="logical" name="LSCALU"> F  </i>
   <i type="logical" name="LASYNC"> F  </i>
   <i type="logical" name="LORBITALREAL"> F  </i>
  </separator>
  <separator name="miscellaneous" >
   <i type="int" name="IDIOT">     3</i>
   <i type="logical" name="LMUSIC"> F  </i>
   <v name="POMASS">     28.08500000</v>
   <v name="DARWINR">      0.00000000</v>
   <v name="DARWINV">      1.00000000</v>
   <i type="logical" name="LCORR"> T  </i>
  </separator>
  <i type="logical" name="GGA_COMPAT"> T  </i>
  <i type="logical" name="LBERRY"> F  </i>
  <i type="int" name="ICORELEVEL">     0</i>
  <i type="logical" name="LDAU"> F  </i>
  <i type="int" name="I_CONSTRAINED_M">     0</i>
  <separator name="electronic exchange-correlation" >
   <i type="string" name="GGA">--</i>
   <i type="int" name="VOSKOWN">     0</i>
   <i type="logical" name="LHFCALC"> F  </i>
   <i type="string" name="PRECFOCK"></i>
   <i type="logical" name="LSYMGRAD"> F  </i>
   <i type="logical" name="LHFONE"> F  </i>
   <i type="logical" name="LRHFCALC"> F  </i>
   <i type="logical" name="LTHOMAS"> F  </i>
   <i type="logical" name="LMODELHF"> F  </i>
   <i name="ENCUT4O">     -1.00000000</i>
   <i type="int" name="EXXOEP">     0</i>
   <i type="int" name="FOURORBIT">     0</i>
   <i name="AEXX">      0.00000000</i>
   <i name="HFALPHA">      0.00000000</i>
   <i name="MCALPHA">      0.00000000</i>
   <i name="ALDAX">      1.00000000</i>
   <i name="AGGAX">      1.00000000</i>
   <i name="ALDAC">      1.00000000</i>
   <i name="AGGAC">      1.00000000</i>
   <i type="int" name="NKREDX">     1</i>
   <i type="int" name="NKREDY">     1</i>
   <i type="int" name="NKREDZ">     1</i>
   <i type="logical" name="SHIFTRED"> F  </i>
   <i type="logical" name="ODDONLY"> F  </i>
   <i type="logical" name="EVENONLY"> F  </i>
   <i type="int" name="LMAXFOCK">     0</i>
   <i type="int" name="NMAXFOCKAE">     0</i>
   <i type="logical" name="LFOCKAEDFT"> F  </i>
   <i name="HFSCREEN">      0.00000000</i>
   <i name="HFSCREENC">      0.00000000</i>
   <i type="int" name="NBANDSGWLOW">     0</i>
  </separator>
  <separator name="vdW DFT" >
   <i type="logical" name="LUSE_VDW"> F  </i>
   <i name="Zab_VDW">     -0.84910000</i>
   <i name="PARAM1">      0.12340000</i>
   <i name="PARAM2">      1.00000000</i>
   <i name="PARAM3">      0.00000000</i>
  </separator>
  <separator name="model GW" >
   <i type="int" name="MODEL_GW">     0</i>
   <i name="MODEL_EPS0">     12.24990743</i>
   <i name="MODEL_ALPHA">      1.00000000</i>
  </separator>
  <separator name="linear response parameters" >
   <i type="logical" name="LEPSILON"> F  </i>
   <i type="logical" name="LRPA"> F  </i>
   <i type="logical" name="LNABLA"> F  </i>
   <i type="logical" name="LVEL"> F  </i>
   <i type="int" name="KINTER">     0</i>
   <i name="CSHIFT">      0.10000000</i>
   <i name="OMEGAMAX">     -1.00000000</i>
   <i name="DEG_THRESHOLD">      0.00200000</i>
  </separator>
  <separator name="orbital magnetization" >
   <i type="logical" name="NUCIND"> F  </i>
   <v name="MAGPOS">      0.00000000      0.00000000      0.00000000</v>
   <i type="logical" name="LNICSALL"> T  </i>
   <i type="logical" name="ORBITALMAG"> F  </i>
   <i type="logical" name="LMAGBLOCH"> F  </i>
   <i type="logical" name="LCHIMAG"> F  </i>
   <i type="logical" name="LGAUGE"> T  </i>
   <i type="int" name="MAGATOM">     0</i>
   <v name="MAGDIPOL">      0.00000000      0.00000000      0.00000000</v>
   <v name="AVECCONST">      0.00000000      0.00000000      0.00000000</v>
  </separator>
  <separator name="response functions" >
   <i type="logical" name="LADDER"> F  </i>
   <i type="logical" name="LFXC"> F  </i>
   <i type="logical" name="LHARTREE"> T  </i>
   <i type="int" name="IBSE">     0</i>
   <v type="int" name="KPOINT">    -1     0     0     0</v>
   <i type="logical" name="LTCTE"> F  </i>
   <i type="logical" name="LTETE"> F  </i>
   <i type="logical" name="LTRIPLET"> F  </i>
   <i type="logical" name="LFXCEPS"> F  </i>
   <i type="logical" name="LFXHEG"> F  </i>
   <i type="int" name="NATURALO">     0</i>
   <i type="logical" name="L2ORDER"> F  </i>
   <i type="logical" name="LUSEW"> F  </i>
   <i name="ENCUTGW">     -2.00000000</i>
   <i name="ENCUTGWSOFT">     -2.00000000</i>
   <i name="ENCUTLF">     -1.00000000</i>
   <i type="int" name="LMAXMP2">    -1</i>
   <i name="SCISSOR">      0.00000000</i>
   <i type="int" name="NOMEGA">     0</i>
   <i type="int" name="NOMEGAR">     0</i>
   <i type="int" name="NBANDSGW">    -1</i>
   <i type="int" name="NBANDSO">    -1</i>
   <i type="int" name="NBANDSV">    -1</i>
   <i type="int" name="NELM">     1</i>
   <i type="int" name="NELMHF">     1</i>
   <i type="int" name="DIM">     3</i>
   <i type="int" name="ANTIRES">     0</i>
   <i name="OMEGAMAX">    -30.00000000</i>
   <i name="OMEGAMIN">    -30.00000000</i>
   <i name="OMEGATL">   -200.00000000</i>
   <i type="int" name="OMEGAGRID">     0</i>
   <i name="CSHIFT">     -0.10000000</i>
   <i type="logical" name="SELFENERGY"> F  </i>
   <i type="logical" name="LSPECTRAL"> F  </i>
   <i type="logical" name="LSPECTRALGW"> F  </i>
   <i type="logical" name="LSINGLES"> F  </i>
   <i type="logical" name="LFERMIGW"> F  </i>
   <i type="logical" name="ODDONLYGW"> F  </i>
   <i type="logical" name="EVENONLYGW"> F  </i>
   <i type="int" name="NKREDLFX">     1</i>
   <i type="int" name="NKREDLFY">     1</i>
   <i type="int" name="NKREDLFZ">     1</i>
   <i type="int" name="MAXMEM">  1800</i>
   <i type="int" name="TELESCOPE">     0</i>
   <i type="int" name="TAUPAR">     1</i>
   <i type="int" name="OMEGAPAR">    -1</i>
   <i name="LAMBDA">      1.00000000</i>
  </separator>
  <separator name="External order field" >
   <i name="OFIELD_KAPPA">      0.00000000</i>
   <v name="OFIELD_K">      0.00000000      0.00000000      0.00000000</v>
   <i name="OFIELD_Q6_NEAR">      0.00000000</i>
   <i name="OFIELD_Q6_FAR">      0.00000000</i>
   <i name="OFIELD_A">      0.00000000</i>
  </separator>
 </parameters>
 <atominfo>
  <atoms>      64 </atoms>
  <types>       1 </types>
  <array name="atoms" >
   <dimension dim="1">ion</dimension>
   <field type="string">element</field>
   <field type="int">atomtype</field>
   <set>
    <rc><c>Si</c><c>   1</c></rc>
    <rc><c>Si</c><c>   1</c></rc>
    <rc><c>Si</c><c>   1</c></rc>
    <rc><c>Si</c><c>   1</c></rc>
    <rc><c>Si</c><c>   1</c></rc>
    <rc><c>Si</c><c>   1</c></rc>
    <rc><c>Si</c><c>   1</c></rc>
    <rc><c>Si</c><c>   1</c></rc>
    <rc><c>Si</c><c>   1</c></rc>
    <rc><c>Si</c><c>   1</c></rc>
    <rc><c>Si</c><c>   1</c></rc>
    <rc><c>Si</c><c>   1</c></rc>
    <rc><c>Si</c><c>   1</c></rc>
    <rc><c>Si</c><c>   1</c></rc>
    <rc><c>Si</c><c>   1</c></rc>
    <rc><c>Si</c><c>   1</c></rc>
    <rc><c>Si</c><c>   1</c></rc>
    <rc><c>Si</c><c>   1</c></rc>
    <rc><c>Si</c><c>   1</c></rc>
    <rc><c>Si</c><c>   1</c></rc>
    <rc><c>Si</c><c>   1</c></rc>
    <rc><c>Si</c><c>   1</c></rc>
    <rc><c>Si</c><c>   1</c></rc>
    <rc><c>Si</c><c>   1</c></rc>
    <rc><c>Si</c><c>   1</c></rc>
    <rc><c>Si</c><c>   1</c></rc>
    <rc><c>Si</c><c>   1</c></rc>
    <rc><c>Si</c><c>   1</c></rc>
    <rc><c>Si</c><c>   1</c></rc>
    <rc><c>Si</c><c>   1</c></rc>
    <rc><c>Si</c><c>   1</c></rc>
    <rc><c>Si</c><c>   1</c></rc>
    <rc><c>Si</c><c>   1</c></rc>
    <rc><c>Si</c><c>   1</c></rc>
    <rc><c>Si</c><c>   1</c></rc>
    <rc><c>Si</c><c>   1</c></rc>
    <rc><c>Si</c><c>   1</c></rc>
    <rc><c>Si</c><c>   1</c></rc>
    <rc><c>Si</c><c>   1</c></rc>
    <rc><c>Si</c><c>   1</c></rc>
    <rc><c>Si</c><c>   1</c></rc>
    <rc><c>Si</c><c>   1</c></rc>
    <rc><c>Si</c><c>   1</c></rc>
    <rc><c>Si</c><c>   1</c></rc>
    <rc><c>Si</c><c>   1</c></rc>
    <rc><c>Si</c><c>   1</c></rc>
    <rc><c>Si</c><c>   1</c></rc>
    <rc><c>Si</c><c>   1</c></rc>
    <rc><c>Si</c><c>   1</c></rc>
    <rc><c>Si</c><c>   1</c></rc>
    <rc><c>Si</c><c>   1</c></rc>
    <rc><c>Si</c><c>   1</c></rc>
    <rc><c>Si</c><c>   1</c></rc>
    <rc><c>Si</c><c>   1</c></rc>
    <rc><c>Si</c><c>   1</c></rc>
    <rc><c>Si</c><c>   1</c></rc>
    <rc><c>Si</c><c>   1</c></rc>
    <rc><c>Si</c><c>   1</c></rc>
    <rc><c>Si</c><c>   1</c></rc>
    <rc><c>Si</c><c>   1</c></rc>
    <rc><c>Si</c><c>   1</c></rc>
    <rc><c>Si</c><c>   1</c></rc>
    <rc><c>Si</c><c>   1</c></rc>
    <rc><c>Si</c><c>   1</c></rc>
   </set>
  </array>
  <array name="atomtypes" >
   <dimension dim="1">type</dimension>
   <field type="int">atomspertype</field>
   <field type="string">element</field>
   <field>mass</field>
   <field>valence</field>
   <field type="string">pseudopotential</field>
   <set>
    <rc><c>  64</c><c>Si</c><c>     28.08500000</c><c>      4.00000000</c><c>  PAW_PBE Si 05Jan2001                  </c></rc>
   </set>
  </array>
 </atominfo>
 <structure name="initialpos" >
  <crystal>
   <varray name="basis" >
    <v>      10.93252578       0.00000000       0.00000000 </v>
    <v>       0.00000000      10.93252578       0.00000000 </v>
    <v>       0.00000000       0.00000000      10.93252578 </v>
   </varray>
   <i name="volume">   1306.65679237 </i>
   <varray name="rec_basis" >
    <v>       0.09147017       0.00000000       0.00000000 </v>
    <v>       0.00000000       0.09147017       0.00000000 </v>
    <v>       0.00000000       0.00000000       0.09147017 </v>
   </varray>
  </crystal>
  <varray name="positions" >
   <v>       0.44024411       0.43750000       0.43750000 </v>
   <v>       0.93750000       0.43750000       0.43750000 </v>
   <v>       0.43750000       0.93750000       0.43750000 </v>
   <v>       0.93750000       0.93750000       0.43750000 </v>
   <v>       0.43750000       0.43750000       0.93750000 </v>
   <v>       0.93750000       0.43750000       0.93750000 </v>
   <v>       0.43750000       0.93750000       0.93750000 </v>
   <v>       0.93750000       0.93750000       0.93750000 </v>
   <v>       0.43750000       0.18750000       0.18750000 </v>
   <v>       0.93750000       0.18750000       0.18750000 </v>
   <v>       0.43750000       0.68750000       0.18750000 </v>
   <v>       0.93750000       0.68750000       0.18750000 </v>
   <v>       0.43750000       0.18750000       0.68750000 </v>
   <v>       0.93750000       0.18750000       0.68750000 </v>
   <v>       0.43750000       0.68750000       0.68750000 </v>
   <v>       0.93750000       0.68750000       0.68750000 </v>
   <v>       0.18750000       0.43750000       0.18750000 </v>
   <v>       0.68750000       0.43750000       0.18750000 </v>
   <v>       0.18750000       0.93750000       0.18750000 </v>
   <v>       0.68750000       0.93750000       0.18750000 </v>
   <v>       0.18750000       0.43750000       0.68750000 </v>
   <v>       0.68750000       0.43750000       0.68750000 </v>
   <v>       0.18750000       0.93750000       0.68750000 </v>
   <v>       0.68750000       0.93750000       0.68750000 </v>
   <v>       0.18750000       0.18750000       0.43750000 </v>
   <v>       0.68750000       0.18750000       0.43750000 </v>
   <v>       0.18750000       0.68750000       0.43750000 </v>
   <v>       0.68750000       0.68750000       0.43750000 </v>
   <v>       0.18750000       0.18750000       0.93750000 </v>
   <v>       0.68750000       0.18750000       0.93750000 </v>
   <v>       0.18750000       0.68750000       0.93750000 </v>
   <v>       0.68750000       0.68750000       0.93750000 </v>
   <v>       0.06250000       0.06250000       0.06250000 </v>
   <v>       0.56250000       0.06250000       0.06250000 </v>
   <v>       0.06250000       0.56250000       0.05975589 </v>
   <v>       0.56250000       0.56250000       0.06250000 </v>
   <v>       0.06250000       0.06250000       0.56250000 </v>
   <v>       0.56250000       0.06250000       0.56250000 </v>
   <v>       0.06250000       0.56250000       0.56250000 </v>
   <v>       0.56250000       0.56250000       0.56250000 </v>
   <v>       0.06250000       0.31250000       0.31250000 </v>
   <v>       0.56250000       0.31250000       0.31250000 </v>
   <v>       0.06250000       0.81250000       0.31250000 </v>
   <v>       0.56250000       0.81250000       0.31250000 </v>
   <v>       0.06250000       0.31250000       0.81250000 </v>
   <v>       0.56250000       0.31250000       0.81250000 </v>
   <v>       0.06250000       0.81250000       0.81250000 </v>
   <v>       0.56250000       0.81250000       0.81250000 </v>
   <v>       0.31250000       0.06250000       0.31250000 </v>
   <v>       0.81250000       0.06250000       0.31250000 </v>
   <v>       0.31250000       0.56250000       0.31250000 </v>
   <v>       0.81250000       0.56250000       0.31250000 </v>
   <v>       0.31250000       0.06250000       0.81250000 </v>
   <v>       0.81250000       0.06250000       0.81250000 </v>
   <v>       0.31250000       0.56250000       0.81250000 </v>
   <v>       0.81250000       0.56250000       0.81250000 </v>
   <v>       0.31250000       0.31250000       0.06250000 </v>
   <v>       0.81250000       0.31250000       0.06250000 </v>
   <v>       0.31250000       0.81250000       0.06250000 </v>
   <v>       0.81250000       0.81250000       0.06250000 </v>
   <v>       0.31250000       0.31250000       0.56250000 </v>
   <v>       0.81250000       0.31250000       0.56250000 </v>
   <v>       0.31250000       0.81250000       0.56250000 </v>
   <v>       0.81250000       0.81250000       0.56250000 </v>
  </varray>
 </structure>
 <calculation>
  <scstep>
   <time name="dav">    3.17    3.17</time>
   <time name="total">    3.42    3.42</time>
   <energy>
    <i name="alphaZ">    105.52440745 </i>
    <i name="ewald">  -7265.47053984 </i>
    <i name="hartreedc">   -361.71310364 </i>
    <i name="XCdc">   -597.75714133 </i>
    <i name="pawpsdc">   5639.92317535 </i>
    <i name="pawaedc">  -4513.95313856 </i>
    <i name="eentropy">     -0.00031759 </i>
    <i name="bandstr">    857.47747187 </i>
    <i name="atom">   6596.14994790 </i>
    <i name="e_fr_energy">    460.18076163 </i>
    <i name="e_wo_entrp">    460.18107921 </i>
    <i name="e_0_energy">    460.18092042 </i>
   </energy>
  </scstep>
  <scstep>
   <time name="dav">    3.64    3.64</time>
   <time name="total">    3.64    3.64</time>
   <energy>
    <i name="e_fr_energy">   -299.20589151 </i>
    <i name="e_wo_entrp">   -299.20589151 </i>
    <i name="e_0_energy">   -299.20589151 </i>
   </energy>
  </scstep>
  <scstep>
   <time name="dav">    3.69    3.69</time>
   <time name="total">    3.69    3.69</time>
   <energy>
    <i name="e_fr_energy">   -350.99319475 </i>
    <i name="e_wo_entrp">   -350.99319475 </i>
    <i name="e_0_energy">   -350.99319475 </i>
   </energy>
  </scstep>
  <scstep>
   <time name="dav">    3.66    3.66</time>
   <time name="total">    3.66    3.67</time>
   <energy>
    <i name="e_fr_energy">   -352.27133977 </i>
    <i name="e_wo_entrp">   -352.27133977 </i>
    <i name="e_0_energy">   -352.27133977 </i>
   </energy>
  </scstep>
  <scstep>
   <time name="dav">    3.65    3.65</time>
   <time name="total">    3.87    3.88</time>
   <energy>
    <i name="e_fr_energy">   -352.31320150 </i>
    <i name="e_wo_entrp">   -352.31320150 </i>
    <i name="e_0_energy">   -352.31320150 </i>
   </energy>
  </scstep>
  <scstep>
   <time name="dav">    3.51    3.51</time>
   <time name="total">    3.91    3.92</time>
   <energy>
    <i name="e_fr_energy">   -348.58475468 </i>
    <i name="e_wo_entrp">   -348.58475468 </i>
    <i name="e_0_energy">   -348.58475468 </i>
   </energy>
  </scstep>
  <scstep>
   <time name="dav">    3.56    3.56</time>
   <time name="total">    3.96    3.97</time>
   <energy>
    <i name="e_fr_energy">   -346.87183489 </i>
    <i name="e_wo_entrp">   -346.87183489 </i>
    <i name="e_0_energy">   -346.87183489 </i>
   </energy>
  </scstep>
  <scstep>
   <time name="dav">    3.53    3.53</time>
   <time name="total">    3.93    3.94</time>
   <energy>
    <i name="e_fr_energy">   -346.89814637 </i>
    <i name="e_wo_entrp">   -346.89814637 </i>
    <i name="e_0_energy">   -346.89814637 </i>
   </energy>
  </scstep>
  <scstep>
   <time name="dav">    3.71    3.71</time>
   <time name="total">    4.12    4.12</time>
   <energy>
    <i name="e_fr_energy">   -346.90484960 </i>
    <i name="e_wo_entrp">   -346.90484960 </i>
    <i name="e_0_energy">   -346.90484960 </i>
   </energy>
  </scstep>
  <scstep>
   <time name="dav">    3.44    3.44</time>
   <time name="total">    3.84    3.85</time>
   <energy>
    <i name="e_fr_energy">   -346.90690321 </i>
    <i name="e_wo_entrp">   -346.90690321 </i>
    <i name="e_0_energy">   -346.90690321 </i>
   </energy>
  </scstep>
  <scstep>
   <time name="dav">    3.63    3.64</time>
   <time name="total">    4.04    4.37</time>
   <energy>
    <i name="e_fr_energy">   -346.90688052 </i>
    <i name="e_wo_entrp">   -346.90688052 </i>
    <i name="e_0_energy">   -346.90688052 </i>
   </energy>
  </scstep>
  <scstep>
   <time name="dav">    3.58    3.59</time>
   <time name="total">    3.97    3.99</time>
   <energy>
    <i name="e_fr_energy">   -346.90689519 </i>
    <i name="e_wo_entrp">   -346.90689519 </i>
    <i name="e_0_energy">   -346.90689519 </i>
   </energy>
  </scstep>
  <scstep>
   <time name="dav">    3.56    3.57</time>
   <time name="total">    3.96    3.98</time>
   <energy>
    <i name="e_fr_energy">   -346.90689565 </i>
    <i name="e_wo_entrp">   -346.90689565 </i>
    <i name="e_0_energy">   -346.90689565 </i>
   </energy>
  </scstep>
  <scstep>
   <time name="dav">    3.66    3.67</time>
   <time name="total">    4.06    4.08</time>
   <energy>
    <i name="e_fr_energy">   -346.90689623 </i>
    <i name="e_wo_entrp">   -346.90689623 </i>
    <i name="e_0_energy">   -346.90689623 </i>
   </energy>
  </scstep>
  <scstep>
   <time name="dav">    3.11    3.12</time>
   <time name="total">    3.52    3.53</time>
   <energy>
    <i name="e_fr_energy">   -346.90689598 </i>
    <i name="e_wo_entrp">   -346.90689598 </i>
    <i name="e_0_energy">   -346.90689598 </i>
   </energy>
  </scstep>
  <scstep>
   <time name="dav">    2.48    2.48</time>
   <time name="total">    2.88    2.89</time>
   <energy>
    <i name="e_fr_energy">   -346.90689606 </i>
    <i name="e_wo_entrp">   -346.90689606 </i>
    <i name="e_0_energy">   -346.90689606 </i>
   </energy>
  </scstep>
  <scstep>
   <time name="dav">    2.44    2.44</time>
   <time name="total">    2.85    2.86</time>
   <energy>
    <i name="e_fr_energy">   -346.90689605 </i>
    <i name="e_wo_entrp">   -346.90689605 </i>
    <i name="e_0_energy">   -346.90689605 </i>
   </energy>
  </scstep>
  <scstep>
   <time name="dav">    2.44    2.44</time>
   <time name="total">    2.84    2.85</time>
   <energy>
    <i name="e_fr_energy">   -346.90689606 </i>
    <i name="e_wo_entrp">   -346.90689606 </i>
    <i name="e_0_energy">   -346.90689606 </i>
   </energy>
  </scstep>
  <scstep>
   <time name="dav">    2.44    2.44</time>
   <time name="total">    2.62    2.62</time>
   <energy>
    <i name="alphaZ">    105.52440745 </i>
    <i name="ewald">  -7265.47053984 </i>
    <i name="hartreedc">   -485.14400811 </i>
    <i name="XCdc">   -577.61228421 </i>
    <i name="pawpsdc">  27883.44055786 </i>
    <i name="pawaedc"> -26764.15848917 </i>
    <i name="eentropy">      0.00000000 </i>
    <i name="bandstr">    160.36351206 </i>
    <i name="atom">   6596.14994790 </i>
    <i name="e_fr_energy">   -346.90689607 </i>
    <i name="e_wo_entrp">   -346.90689607 </i>
    <i name="e_0_energy">   -346.90689607 </i>
   </energy>
  </scstep>
  <structure>
   <crystal>
    <varray name="basis" >
     <v>      10.93252578       0.00000000       0.00000000 </v>
     <v>       0.00000000      10.93252578       0.00000000 </v>
     <v>       0.00000000       0.00000000      10.93252578 </v>
    </varray>
    <i name="volume">   1306.65679237 </i>
    <varray name="rec_basis" >
     <v>       0.09147017       0.00000000       0.00000000 </v>
     <v>       0.00000000       0.09147017       0.00000000 </v>
     <v>       0.00000000       0.00000000       0.09147017 </v>
    </varray>
   </crystal>
   <varray name="positions" >
    <v>       0.44024411       0.43750000       0.43750000 </v>
    <v>       0.93750000       0.43750000       0.43750000 </v>
    <v>       0.43750000       0.93750000       0.43750000 </v>
    <v>       0.93750000       0.93750000       0.43750000 </v>
    <v>       0.43750000       0.43750000       0.93750000 </v>
    <v>       0.93750000       0.43750000       0.93750000 </v>
    <v>       0.43750000       0.93750000       0.93750000 </v>
    <v>       0.93750000       0.93750000       0.93750000 </v>
    <v>       0.43750000       0.18750000       0.18750000 </v>
    <v>       0.93750000       0.18750000       0.18750000 </v>
    <v>       0.43750000       0.68750000       0.18750000 </v>
    <v>       0.93750000       0.68750000       0.18750000 </v>
    <v>       0.43750000       0.18750000       0.68750000 </v>
    <v>       0.93750000       0.18750000       0.68750000 </v>
    <v>       0.43750000       0.68750000       0.68750000 </v>
    <v>       0.93750000       0.68750000       0.68750000 </v>
    <v>       0.18750000       0.43750000       0.18750000 </v>
    <v>       0.68750000       0.43750000       0.18750000 </v>
    <v>       0.18750000       0.93750000       0.18750000 </v>
    <v>       0.68750000       0.93750000       0.18750000 </v>
    <v>       0.18750000       0.43750000       0.68750000 </v>
    <v>       0.68750000       0.43750000       0.68750000 </v>
    <v>       0.18750000       0.93750000       0.68750000 </v>
    <v>       0.68750000       0.93750000       0.68750000 </v>
    <v>       0.18750000       0.18750000       0.43750000 </v>
    <v>       0.68750000       0.18750000       0.43750000 </v>
    <v>       0.18750000       0.68750000       0.43750000 </v>
    <v>       0.68750000       0.68750000       0.43750000 </v>
    <v>       0.18750000       0.18750000       0.93750000 </v>
    <v>       0.68750000       0.18750000       0.93750000 </v>
    <v>       0.18750000       0.68750000       0.93750000 </v>
    <v>       0.68750000       0.68750000       0.93750000 </v>
    <v>       0.06250000       0.06250000       0.06250000 </v>
    <v>       0.56250000       0.06250000       0.06250000 </v>
    <v>       0.06250000       0.56250000       0.05975589 </v>
    <v>       0.56250000       0.56250000       0.06250000 </v>
    <v>       0.06250000       0.06250000       0.56250000 </v>
    <v>       0.56250000       0.06250000       0.56250000 </v>
    <v>       0.06250000       0.56250000       0.56250000 </v>
    <v>       0.56250000       0.56250000       0.56250000 </v>
    <v>       0.06250000       0.31250000       0.31250000 </v>
    <v>       0.56250000       0.31250000       0.31250000 </v>
    <v>       0.06250000       0.81250000       0.31250000 </v>
    <v>       0.56250000       0.81250000       0.31250000 </v>
    <v>       0.06250000       0.31250000       0.81250000 </v>
    <v>       0.56250000       0.31250000       0.81250000 </v>
    <v>       0.06250000       0.81250000       0.81250000 </v>
    <v>       0.56250000       0.81250000       0.81250000 </v>
    <v>       0.31250000       0.06250000       0.31250000 </v>
    <v>       0.81250000       0.06250000       0.31250000 </v>
    <v>       0.31250000       0.56250000       0.31250000 </v>
    <v>       0.81250000       0.56250000       0.31250000 </v>
    <v>       0.31250000       0.06250000       0.81250000 </v>
    <v>       0.81250000       0.06250000       0.81250000 </v>
    <v>       0.31250000       0.56250000       0.81250000 </v>
    <v>       0.81250000       0.56250000       0.81250000 </v>
    <v>       0.31250000       0.31250000       0.06250000 </v>
    <v>       0.81250000       0.31250000       0.06250000 </v>
    <v>       0.31250000       0.81250000       0.06250000 </v>
    <v>       0.81250000       0.81250000       0.06250000 </v>
    <v>       0.31250000       0.31250000       0.56250000 </v>
    <v>       0.81250000       0.31250000       0.56250000 </v>
    <v>       0.31250000       0.81250000       0.56250000 </v>
    <v>       0.81250000       0.81250000       0.56250000 </v>
   </varray>
  </structure>
  <varray name="forces" >
   <v>      -0.38769981      -0.00063405      -0.00057843 </v>
   <v>      -0.00036053      -0.00091061       0.00027607 </v>
   <v>       0.00056386      -0.00075442       0.00053463 </v>
   <v>      -0.00082804      -0.00060609      -0.00061913 </v>
   <v>       0.00039591      -0.00121207       0.00147590 </v>
   <v>      -0.06628399      -0.06609324      -0.09579863 </v>
   <v>      -0.01223384      -0.00067716      -0.00621665 </v>
   <v>      -0.00063533      -0.00092476       0.00147571 </v>
   <v>      -0.01220877       0.00209363      -0.00336423 </v>
   <v>       0.00122367      -0.00066122       0.00165948 </v>
   <v>      -0.01188888       0.00141804      -0.00122901 </v>
   <v>       0.06095473      -0.06072333      -0.09331544 </v>
   <v>      -0.01203056      -0.00341137       0.00320287 </v>
   <v>       0.00070708      -0.00087219      -0.00042742 </v>
   <v>      -0.01224324      -0.00347805      -0.00343141 </v>
   <v>       0.00087910      -0.00113123       0.00005089 </v>
   <v>      -0.05532977       0.05830806      -0.08752751 </v>
   <v>       0.00491609      -0.00152068      -0.00425770 </v>
   <v>      -0.00022963       0.00065822      -0.00042752 </v>
   <v>       0.00034327       0.00044751      -0.00429278 </v>
   <v>       0.00474323       0.00357518      -0.00528252 </v>
   <v>       0.00516336       0.00348020       0.00502873 </v>
   <v>       0.00031100       0.00086931       0.00119950 </v>
   <v>       0.00027475       0.00097544      -0.00131161 </v>
   <v>       0.00629735       0.00616069      -0.00329319 </v>
   <v>       0.00656166      -0.00493555      -0.00222764 </v>
   <v>       0.00655625      -0.00465417       0.00294345 </v>
   <v>       0.00640480       0.00634299       0.00215115 </v>
   <v>       0.00222887      -0.00093703       0.00124359 </v>
   <v>       0.00170554       0.00252796      -0.00644226 </v>
   <v>       0.06713531       0.06796789      -0.09556333 </v>
   <v>       0.00194736      -0.00063749       0.00170523 </v>
   <v>      -0.00053463       0.00075442      -0.00056386 </v>
   <v>       0.00621665       0.00067716       0.01223384 </v>
   <v>       0.00057843       0.00063405       0.38769981 </v>
   <v>      -0.00147590       0.00121207      -0.00039591 </v>
   <v>       0.00061913       0.00060609       0.00082804 </v>
   <v>      -0.00147571       0.00092476       0.00063533 </v>
   <v>      -0.00027607       0.00091061       0.00036053 </v>
   <v>       0.09579863       0.06609324       0.06628399 </v>
   <v>      -0.00294345       0.00465417      -0.00655625 </v>
   <v>       0.09556333      -0.06796789      -0.06713531 </v>
   <v>       0.00329319      -0.00616069      -0.00629735 </v>
   <v>      -0.00124359       0.00093703      -0.00222887 </v>
   <v>      -0.00215115      -0.00634299      -0.00640480 </v>
   <v>      -0.00170523       0.00063749      -0.00194736 </v>
   <v>       0.00222764       0.00493555      -0.00656166 </v>
   <v>       0.00644226      -0.00252796      -0.00170554 </v>
   <v>       0.00042752      -0.00065822       0.00022963 </v>
   <v>      -0.00119950      -0.00086931      -0.00031100 </v>
   <v>       0.08752751      -0.05830806       0.05532977 </v>
   <v>       0.00528252      -0.00357518      -0.00474323 </v>
   <v>       0.00429278      -0.00044751      -0.00034327 </v>
   <v>       0.00131161      -0.00097544      -0.00027475 </v>
   <v>       0.00425770       0.00152068      -0.00491609 </v>
   <v>      -0.00502873      -0.00348020      -0.00516336 </v>
   <v>       0.00122901      -0.00141804       0.01188888 </v>
   <v>       0.00343141       0.00347805       0.01224324 </v>
   <v>       0.00336423      -0.00209363       0.01220877 </v>
   <v>      -0.00320287       0.00341137       0.01203056 </v>
   <v>       0.09331544       0.06072333      -0.06095473 </v>
   <v>      -0.00005089       0.00113123      -0.00087910 </v>
   <v>      -0.00165948       0.00066122      -0.00122367 </v>
   <v>       0.00042742       0.00087219      -0.00070708 </v>
  </varray>
  <varray name="stress" >
   <v>       0.00184807       0.33483639       0.00025971 </v>
   <v>       0.33483637       0.02071666       0.33483637 </v>
   <v>       0.00025971       0.33483639       0.00184807 </v>
  </varray>
  <energy>
   <i name="e_fr_energy">   -346.90689607 </i>
   <i name="e_wo_entrp">   -346.90689607 </i>
   <i name="e_0_energy">      0.00000000 </i>
  </energy>
  <time name="totalsc">   76.97   77.48</time>
  <eigenvalues>
   <array>
    <dimension dim="1">band</dimension>
    <dimension dim="2">kpoint</dimension>
    <dimension dim="3">spin</dimension>
    <field>eigene</field>
    <field>occ</field>
    <set>
     <set comment="spin 1">
      <set comment="kpoint 1">
       <r>   -5.9931    1.0000 </r>
       <r>   -5.4692    1.0000 </r>
       <r>   -5.4638    1.0000 </r>
       <r>   -5.4616    1.0000 </r>
       <r>   -4.9698    1.0000 </r>
       <r>   -4.9643    1.0000 </r>
       <r>   -4.9623    1.0000 </r>
       <r>   -4.5312    1.0000 </r>
       <r>   -4.4366    1.0000 </r>
       <r>   -4.4311    1.0000 </r>
       <r>   -4.4287    1.0000 </r>
       <r>   -4.0241    1.0000 </r>
       <r>   -4.0225    1.0000 </r>
       <r>   -4.0167    1.0000 </r>
       <r>   -4.0139    1.0000 </r>
       <r>   -4.0132    1.0000 </r>
       <r>   -4.0111    1.0000 </r>
       <r>   -3.8294    1.0000 </r>
       <r>   -3.8237    1.0000 </r>
       <r>   -3.8217    1.0000 </r>
       <r>   -3.3316    1.0000 </r>
       <r>   -3.3258    1.0000 </r>
       <r>   -3.3224    1.0000 </r>
       <r>   -2.9650    1.0000 </r>
       <r>   -2.9577    1.0000 </r>
       <r>   -2.9559    1.0000 </r>
       <r>   -2.7997    1.0000 </r>
       <r>   -2.7951    1.0000 </r>
       <r>   -2.7913    1.0000 </r>
       <r>   -2.7889    1.0000 </r>
       <r>   -2.7868    1.0000 </r>
       <r>   -2.7849    1.0000 </r>
       <r>   -1.2583    1.0000 </r>
       <r>   -1.2519    1.0000 </r>
       <r>   -1.2488    1.0000 </r>
       <r>   -1.2468    1.0000 </r>
       <r>   -1.2426    1.0000 </r>
       <r>   -1.2420    1.0000 </r>
       <r>   -1.1560    1.0000 </r>
       <r>   -1.1484    1.0000 </r>
       <r>   -1.1464    1.0000 </r>
       <r>   -1.0345    1.0000 </r>
       <r>   -1.0321    1.0000 </r>
       <r>   -1.0265    1.0000 </r>
       <r>   -0.9558    1.0000 </r>
       <r>   -0.9499    1.0000 </r>
       <r>   -0.9465    1.0000 </r>
       <r>   -0.2481    1.0000 </r>
       <r>   -0.1679    1.0000 </r>
       <r>   -0.1628    1.0000 </r>
       <r>   -0.1603    1.0000 </r>
       <r>   -0.1575    1.0000 </r>
       <r>   -0.1521    1.0000 </r>
       <r>   -0.1516    1.0000 </r>
       <r>    0.7087    1.0000 </r>
       <r>    0.7110    1.0000 </r>
       <r>    0.7163    1.0000 </r>
       <r>    1.0442    1.0000 </r>
       <r>    1.0475    1.0000 </r>
       <r>    1.0497    1.0000 </r>
       <r>    1.6529    1.0000 </r>
       <r>    1.6545    1.0000 </r>
       <r>    1.6559    1.0000 </r>
       <r>    1.6582    1.0000 </r>
       <r>    1.6589    1.0000 </r>
       <r>    1.6620    1.0000 </r>
       <r>    1.7139    1.0000 </r>
       <r>    1.7187    1.0000 </r>
       <r>    1.7188    1.0000 </r>
       <r>    2.2625    1.0000 </r>
       <r>    2.2671    1.0000 </r>
       <r>    2.2677    1.0000 </r>
       <r>    2.3670    1.0000 </r>
       <r>    2.3684    1.0000 </r>
       <r>    2.3711    1.0000 </r>
       <r>    2.3715    1.0000 </r>
       <r>    2.3757    1.0000 </r>
       <r>    2.3789    1.0000 </r>
       <r>    2.4229    1.0000 </r>
       <r>    2.4284    1.0000 </r>
       <r>    2.4302    1.0000 </r>
       <r>    2.7301    1.0000 </r>
       <r>    2.7312    1.0000 </r>
       <r>    2.7340    1.0000 </r>
       <r>    2.7360    1.0000 </r>
       <r>    2.7379    1.0000 </r>
       <r>    2.7395    1.0000 </r>
       <r>    2.9996    1.0000 </r>
       <r>    2.9999    1.0000 </r>
       <r>    3.0021    1.0000 </r>
       <r>    3.0116    1.0000 </r>
       <r>    3.0148    1.0000 </r>
       <r>    3.0172    1.0000 </r>
       <r>    3.3561    1.0000 </r>
       <r>    3.3612    1.0000 </r>
       <r>    3.3627    1.0000 </r>
       <r>    3.3762    1.0000 </r>
       <r>    3.3836    1.0000 </r>
       <r>    3.3847    1.0000 </r>
       <r>    3.4650    1.0000 </r>
       <r>    3.4666    1.0000 </r>
       <r>    3.4715    1.0000 </r>
       <r>    3.7294    1.0000 </r>
       <r>    3.7372    1.0000 </r>
       <r>    3.7380    1.0000 </r>
       <r>    3.7412    1.0000 </r>
       <r>    3.7424    1.0000 </r>
       <r>    3.7435    1.0000 </r>
       <r>    3.7791    1.0000 </r>
       <r>    3.7807    1.0000 </r>
       <r>    3.7864    1.0000 </r>
       <r>    4.0367    1.0000 </r>
       <r>    4.0984    1.0000 </r>
       <r>    4.0993    1.0000 </r>
       <r>    4.1029    1.0000 </r>
       <r>    4.3397    1.0000 </r>
       <r>    4.3414    1.0000 </r>
       <r>    4.3474    1.0000 </r>
       <r>    4.3984    1.0000 </r>
       <r>    4.4006    1.0000 </r>
       <r>    4.4051    1.0000 </r>
       <r>    4.5617    1.0000 </r>
       <r>    4.5665    1.0000 </r>
       <r>    4.8687    1.0000 </r>
       <r>    4.8706    1.0000 </r>
       <r>    4.8788    1.0000 </r>
       <r>    5.3493    1.0000 </r>
       <r>    5.3547    1.0000 </r>
       <r>    6.5620    0.0000 </r>
       <r>    6.5659    0.0000 </r>
       <r>    6.5671    0.0000 </r>
       <r>    7.0008    0.0000 </r>
       <r>    7.0032    0.0000 </r>
       <r>    7.0114    0.0000 </r>
       <r>    7.2351    0.0000 </r>
       <r>    7.4885    0.0000 </r>
       <r>    7.4912    0.0000 </r>
       <r>    7.4973    0.0000 </r>
       <r>    7.6152    0.0000 </r>
       <r>    7.6166    0.0000 </r>
       <r>    7.6227    0.0000 </r>
       <r>    7.7781    0.0000 </r>
       <r>    7.7784    0.0000 </r>
       <r>    7.7835    0.0000 </r>
       <r>    7.8003    0.0000 </r>
       <r>    7.8010    0.0000 </r>
       <r>    7.8051    0.0000 </r>
       <r>    8.0230    0.0000 </r>
       <r>    8.0258    0.0000 </r>
       <r>    8.0264    0.0000 </r>
       <r>    8.0304    0.0000 </r>
       <r>    8.0315    0.0000 </r>
       <r>    8.0357    0.0000 </r>
       <r>    8.0835    0.0000 </r>
       <r>    8.2926    0.0000 </r>
       <r>    8.2938    0.0000 </r>
       <r>    8.2991    0.0000 </r>
       <r>    8.4956    0.0000 </r>
       <r>    8.4976    0.0000 </r>
       <r>    8.5015    0.0000 </r>
       <r>    8.5033    0.0000 </r>
       <r>    8.5093    0.0000 </r>
       <r>    8.5212    0.0000 </r>
       <r>    8.5460    0.0000 </r>
      </set>
      <set comment="kpoint 2">
       <r>   -5.9932    1.0000 </r>
       <r>   -5.4682    1.0000 </r>
       <r>   -5.4651    1.0000 </r>
       <r>   -5.4610    1.0000 </r>
       <r>   -4.9689    1.0000 </r>
       <r>   -4.9659    1.0000 </r>
       <r>   -4.9617    1.0000 </r>
       <r>   -4.5322    1.0000 </r>
       <r>   -4.4357    1.0000 </r>
       <r>   -4.4330    1.0000 </r>
       <r>   -4.4286    1.0000 </r>
       <r>   -4.0238    1.0000 </r>
       <r>   -4.0188    1.0000 </r>
       <r>   -4.0181    1.0000 </r>
       <r>   -4.0151    1.0000 </r>
       <r>   -4.0133    1.0000 </r>
       <r>   -4.0096    1.0000 </r>
       <r>   -3.8286    1.0000 </r>
       <r>   -3.8244    1.0000 </r>
       <r>   -3.8199    1.0000 </r>
       <r>   -3.3313    1.0000 </r>
       <r>   -3.3297    1.0000 </r>
       <r>   -3.3240    1.0000 </r>
       <r>   -2.9640    1.0000 </r>
       <r>   -2.9591    1.0000 </r>
       <r>   -2.9545    1.0000 </r>
       <r>   -2.7982    1.0000 </r>
       <r>   -2.7933    1.0000 </r>
       <r>   -2.7928    1.0000 </r>
       <r>   -2.7891    1.0000 </r>
       <r>   -2.7879    1.0000 </r>
       <r>   -2.7837    1.0000 </r>
       <r>   -1.2563    1.0000 </r>
       <r>   -1.2523    1.0000 </r>
       <r>   -1.2510    1.0000 </r>
       <r>   -1.2475    1.0000 </r>
       <r>   -1.2458    1.0000 </r>
       <r>   -1.2406    1.0000 </r>
       <r>   -1.1563    1.0000 </r>
       <r>   -1.1510    1.0000 </r>
       <r>   -1.1458    1.0000 </r>
       <r>   -1.0377    1.0000 </r>
       <r>   -1.0327    1.0000 </r>
       <r>   -1.0273    1.0000 </r>
       <r>   -0.9537    1.0000 </r>
       <r>   -0.9472    1.0000 </r>
       <r>   -0.9393    1.0000 </r>
       <r>   -0.2446    1.0000 </r>
       <r>   -0.1663    1.0000 </r>
       <r>   -0.1648    1.0000 </r>
       <r>   -0.1635    1.0000 </r>
       <r>   -0.1591    1.0000 </r>
       <r>   -0.1560    1.0000 </r>
       <r>   -0.1510    1.0000 </r>
       <r>    0.7091    1.0000 </r>
       <r>    0.7138    1.0000 </r>
       <r>    0.7200    1.0000 </r>
       <r>    1.0432    1.0000 </r>
       <r>    1.0469    1.0000 </r>
       <r>    1.0512    1.0000 </r>
       <r>    1.6525    1.0000 </r>
       <r>    1.6538    1.0000 </r>
       <r>    1.6563    1.0000 </r>
       <r>    1.6577    1.0000 </r>
       <r>    1.6590    1.0000 </r>
       <r>    1.6624    1.0000 </r>
       <r>    1.7137    1.0000 </r>
       <r>    1.7156    1.0000 </r>
       <r>    1.7190    1.0000 </r>
       <r>    2.2650    1.0000 </r>
       <r>    2.2677    1.0000 </r>
       <r>    2.2705    1.0000 </r>
       <r>    2.3649    1.0000 </r>
       <r>    2.3668    1.0000 </r>
       <r>    2.3697    1.0000 </r>
       <r>    2.3715    1.0000 </r>
       <r>    2.3756    1.0000 </r>
       <r>    2.3765    1.0000 </r>
       <r>    2.4219    1.0000 </r>
       <r>    2.4247    1.0000 </r>
       <r>    2.4284    1.0000 </r>
       <r>    2.7295    1.0000 </r>
       <r>    2.7323    1.0000 </r>
       <r>    2.7339    1.0000 </r>
       <r>    2.7350    1.0000 </r>
       <r>    2.7371    1.0000 </r>
       <r>    2.7417    1.0000 </r>
       <r>    2.9964    1.0000 </r>
       <r>    2.9999    1.0000 </r>
       <r>    3.0013    1.0000 </r>
       <r>    3.0096    1.0000 </r>
       <r>    3.0137    1.0000 </r>
       <r>    3.0174    1.0000 </r>
       <r>    3.3578    1.0000 </r>
       <r>    3.3622    1.0000 </r>
       <r>    3.3655    1.0000 </r>
       <r>    3.3803    1.0000 </r>
       <r>    3.3847    1.0000 </r>
       <r>    3.3884    1.0000 </r>
       <r>    3.4642    1.0000 </r>
       <r>    3.4659    1.0000 </r>
       <r>    3.4699    1.0000 </r>
       <r>    3.7332    1.0000 </r>
       <r>    3.7385    1.0000 </r>
       <r>    3.7405    1.0000 </r>
       <r>    3.7417    1.0000 </r>
       <r>    3.7445    1.0000 </r>
       <r>    3.7491    1.0000 </r>
       <r>    3.7780    1.0000 </r>
       <r>    3.7798    1.0000 </r>
       <r>    3.7845    1.0000 </r>
       <r>    4.0404    1.0000 </r>
       <r>    4.0945    1.0000 </r>
       <r>    4.0985    1.0000 </r>
       <r>    4.1009    1.0000 </r>
       <r>    4.3381    1.0000 </r>
       <r>    4.3403    1.0000 </r>
       <r>    4.3445    1.0000 </r>
       <r>    4.4004    1.0000 </r>
       <r>    4.4054    1.0000 </r>
       <r>    4.4119    1.0000 </r>
       <r>    4.5588    1.0000 </r>
       <r>    4.5670    1.0000 </r>
       <r>    4.8662    1.0000 </r>
       <r>    4.8693    1.0000 </r>
       <r>    4.8747    1.0000 </r>
       <r>    5.3451    1.0000 </r>
       <r>    5.3544    1.0000 </r>
       <r>    6.5597    0.0000 </r>
       <r>    6.5638    0.0000 </r>
       <r>    6.5666    0.0000 </r>
       <r>    7.0012    0.0000 </r>
       <r>    7.0039    0.0000 </r>
       <r>    7.0081    0.0000 </r>
       <r>    7.2337    0.0000 </r>
       <r>    7.4873    0.0000 </r>
       <r>    7.4907    0.0000 </r>
       <r>    7.4942    0.0000 </r>
       <r>    7.6152    0.0000 </r>
       <r>    7.6196    0.0000 </r>
       <r>    7.6239    0.0000 </r>
       <r>    7.7769    0.0000 </r>
       <r>    7.7803    0.0000 </r>
       <r>    7.7819    0.0000 </r>
       <r>    7.7975    0.0000 </r>
       <r>    7.8024    0.0000 </r>
       <r>    7.8039    0.0000 </r>
       <r>    8.0241    0.0000 </r>
       <r>    8.0268    0.0000 </r>
       <r>    8.0292    0.0000 </r>
       <r>    8.0318    0.0000 </r>
       <r>    8.0337    0.0000 </r>
       <r>    8.0376    0.0000 </r>
       <r>    8.0812    0.0000 </r>
       <r>    8.2925    0.0000 </r>
       <r>    8.2948    0.0000 </r>
       <r>    8.2975    0.0000 </r>
       <r>    8.4949    0.0000 </r>
       <r>    8.4968    0.0000 </r>
       <r>    8.5005    0.0000 </r>
       <r>    8.5047    0.0000 </r>
       <r>    8.5109    0.0000 </r>
       <r>    8.5225    0.0000 </r>
       <r>    8.5403    0.0000 </r>
      </set>
      <set comment="kpoint 3">
       <r>   -5.9932    1.0000 </r>
       <r>   -5.4677    1.0000 </r>
       <r>   -5.4667    1.0000 </r>
       <r>   -5.4595    1.0000 </r>
       <r>   -4.9687    1.0000 </r>
       <r>   -4.9675    1.0000 </r>
       <r>   -4.9605    1.0000 </r>
       <r>   -4.5332    1.0000 </r>
       <r>   -4.4359    1.0000 </r>
       <r>   -4.4346    1.0000 </r>
       <r>   -4.4278    1.0000 </r>
       <r>   -4.0219    1.0000 </r>
       <r>   -4.0193    1.0000 </r>
       <r>   -4.0185    1.0000 </r>
       <r>   -4.0169    1.0000 </r>
       <r>   -4.0160    1.0000 </r>
       <r>   -4.0033    1.0000 </r>
       <r>   -3.8271    1.0000 </r>
       <r>   -3.8248    1.0000 </r>
       <r>   -3.8192    1.0000 </r>
       <r>   -3.3342    1.0000 </r>
       <r>   -3.3313    1.0000 </r>
       <r>   -3.3249    1.0000 </r>
       <r>   -2.9623    1.0000 </r>
       <r>   -2.9607    1.0000 </r>
       <r>   -2.9535    1.0000 </r>
       <r>   -2.7965    1.0000 </r>
       <r>   -2.7944    1.0000 </r>
       <r>   -2.7916    1.0000 </r>
       <r>   -2.7908    1.0000 </r>
       <r>   -2.7905    1.0000 </r>
       <r>   -2.7795    1.0000 </r>
       <r>   -1.2557    1.0000 </r>
       <r>   -1.2543    1.0000 </r>
       <r>   -1.2493    1.0000 </r>
       <r>   -1.2486    1.0000 </r>
       <r>   -1.2466    1.0000 </r>
       <r>   -1.2415    1.0000 </r>
       <r>   -1.1562    1.0000 </r>
       <r>   -1.1535    1.0000 </r>
       <r>   -1.1460    1.0000 </r>
       <r>   -1.0384    1.0000 </r>
       <r>   -1.0336    1.0000 </r>
       <r>   -1.0310    1.0000 </r>
       <r>   -0.9472    1.0000 </r>
       <r>   -0.9465    1.0000 </r>
       <r>   -0.9342    1.0000 </r>
       <r>   -0.2410    1.0000 </r>
       <r>   -0.1701    1.0000 </r>
       <r>   -0.1666    1.0000 </r>
       <r>   -0.1617    1.0000 </r>
       <r>   -0.1601    1.0000 </r>
       <r>   -0.1585    1.0000 </r>
       <r>   -0.1523    1.0000 </r>
       <r>    0.7122    1.0000 </r>
       <r>    0.7160    1.0000 </r>
       <r>    0.7215    1.0000 </r>
       <r>    1.0445    1.0000 </r>
       <r>    1.0466    1.0000 </r>
       <r>    1.0499    1.0000 </r>
       <r>    1.6539    1.0000 </r>
       <r>    1.6544    1.0000 </r>
       <r>    1.6548    1.0000 </r>
       <r>    1.6577    1.0000 </r>
       <r>    1.6584    1.0000 </r>
       <r>    1.6619    1.0000 </r>
       <r>    1.7123    1.0000 </r>
       <r>    1.7143    1.0000 </r>
       <r>    1.7181    1.0000 </r>
       <r>    2.2674    1.0000 </r>
       <r>    2.2690    1.0000 </r>
       <r>    2.2723    1.0000 </r>
       <r>    2.3640    1.0000 </r>
       <r>    2.3655    1.0000 </r>
       <r>    2.3688    1.0000 </r>
       <r>    2.3714    1.0000 </r>
       <r>    2.3725    1.0000 </r>
       <r>    2.3754    1.0000 </r>
       <r>    2.4211    1.0000 </r>
       <r>    2.4218    1.0000 </r>
       <r>    2.4257    1.0000 </r>
       <r>    2.7297    1.0000 </r>
       <r>    2.7325    1.0000 </r>
       <r>    2.7330    1.0000 </r>
       <r>    2.7354    1.0000 </r>
       <r>    2.7379    1.0000 </r>
       <r>    2.7421    1.0000 </r>
       <r>    2.9948    1.0000 </r>
       <r>    2.9987    1.0000 </r>
       <r>    3.0000    1.0000 </r>
       <r>    3.0103    1.0000 </r>
       <r>    3.0122    1.0000 </r>
       <r>    3.0155    1.0000 </r>
       <r>    3.3609    1.0000 </r>
       <r>    3.3618    1.0000 </r>
       <r>    3.3686    1.0000 </r>
       <r>    3.3844    1.0000 </r>
       <r>    3.3869    1.0000 </r>
       <r>    3.3909    1.0000 </r>
       <r>    3.4619    1.0000 </r>
       <r>    3.4665    1.0000 </r>
       <r>    3.4681    1.0000 </r>
       <r>    3.7385    1.0000 </r>
       <r>    3.7404    1.0000 </r>
       <r>    3.7409    1.0000 </r>
       <r>    3.7450    1.0000 </r>
       <r>    3.7488    1.0000 </r>
       <r>    3.7492    1.0000 </r>
       <r>    3.7753    1.0000 </r>
       <r>    3.7804    1.0000 </r>
       <r>    3.7829    1.0000 </r>
       <r>    4.0442    1.0000 </r>
       <r>    4.0920    1.0000 </r>
       <r>    4.0969    1.0000 </r>
       <r>    4.0986    1.0000 </r>
       <r>    4.3351    1.0000 </r>
       <r>    4.3405    1.0000 </r>
       <r>    4.3417    1.0000 </r>
       <r>    4.4062    1.0000 </r>
       <r>    4.4083    1.0000 </r>
       <r>    4.4168    1.0000 </r>
       <r>    4.5593    1.0000 </r>
       <r>    4.5641    1.0000 </r>
       <r>    4.8622    1.0000 </r>
       <r>    4.8693    1.0000 </r>
       <r>    4.8709    1.0000 </r>
       <r>    5.3448    1.0000 </r>
       <r>    5.3501    1.0000 </r>
       <r>    6.5586    0.0000 </r>
       <r>    6.5616    0.0000 </r>
       <r>    6.5652    0.0000 </r>
       <r>    6.9992    0.0000 </r>
       <r>    7.0048    0.0000 </r>
       <r>    7.0070    0.0000 </r>
       <r>    7.2323    0.0000 </r>
       <r>    7.4857    0.0000 </r>
       <r>    7.4898    0.0000 </r>
       <r>    7.4920    0.0000 </r>
       <r>    7.6164    0.0000 </r>
       <r>    7.6223    0.0000 </r>
       <r>    7.6241    0.0000 </r>
       <r>    7.7766    0.0000 </r>
       <r>    7.7794    0.0000 </r>
       <r>    7.7816    0.0000 </r>
       <r>    7.7964    0.0000 </r>
       <r>    7.8020    0.0000 </r>
       <r>    7.8036    0.0000 </r>
       <r>    8.0255    0.0000 </r>
       <r>    8.0291    0.0000 </r>
       <r>    8.0306    0.0000 </r>
       <r>    8.0314    0.0000 </r>
       <r>    8.0372    0.0000 </r>
       <r>    8.0397    0.0000 </r>
       <r>    8.0790    0.0000 </r>
       <r>    8.2917    0.0000 </r>
       <r>    8.2961    0.0000 </r>
       <r>    8.2964    0.0000 </r>
       <r>    8.4942    0.0000 </r>
       <r>    8.4977    0.0000 </r>
       <r>    8.5016    0.0000 </r>
       <r>    8.5035    0.0000 </r>
       <r>    8.5083    0.0000 </r>
       <r>    8.5212    0.0000 </r>
       <r>    8.5412    0.0000 </r>
      </set>
     </set>
    </set>
   </array>
  </eigenvalues>
  <separator name="orbital magnetization" >
   <v name="MAGDIPOLOUT">      0.00000000      0.00000000      0.00000000</v>
  </separator>
  <dos>
   <i name="efermi">      5.59787383 </i>
   <total>
    <array>
     <dimension dim="1">gridpoints</dimension>
     <dimension dim="2">spin</dimension>
     <field>energy</field>
     <field>total</field>
     <field>integrated</field>
     <set>
      <set comment="spin 1">
       <r>    -6.7202     0.0000     0.0000 </r>
       <r>    -6.6669     0.0000     0.0000 </r>
       <r>    -6.6136     0.0000     0.0000 </r>
       <r>    -6.5603     0.0000     0.0000 </r>
       <r>    -6.5069     0.0000     0.0000 </r>
       <r>    -6.4536     0.0000     0.0000 </r>
       <r>    -6.4003     0.0000     0.0000 </r>
       <r>    -6.3470     0.0000     0.0000 </r>
       <r>    -6.2937     0.0000     0.0000 </r>
       <r>    -6.2404     0.0000     0.0000 </r>
       <r>    -6.1871     0.0000     0.0000 </r>
       <r>    -6.1338     0.0013     0.0001 </r>
       <r>    -6.0805     0.2527     0.0135 </r>
       <r>    -6.0272     6.0561     0.3364 </r>
       <r>    -5.9738    20.2382     1.4153 </r>
       <r>    -5.9205    10.2185     1.9601 </r>
       <r>    -5.8672     0.7423     1.9996 </r>
       <r>    -5.8139     0.0069     2.0000 </r>
       <r>    -5.7606     0.0000     2.0000 </r>
       <r>    -5.7073     0.0000     2.0000 </r>
       <r>    -5.6540     0.0000     2.0000 </r>
       <r>    -5.6007     0.0072     2.0004 </r>
       <r>    -5.5474     1.1169     2.0599 </r>
       <r>    -5.4940    21.9144     3.2282 </r>
       <r>    -5.4407    61.4529     6.5043 </r>
       <r>    -5.3874    26.4033     7.9119 </r>
       <r>    -5.3341     1.6402     7.9993 </r>
       <r>    -5.2808     0.0131     8.0000 </r>
       <r>    -5.2275     0.0000     8.0000 </r>
       <r>    -5.1742     0.0000     8.0000 </r>
       <r>    -5.1209     0.0007     8.0000 </r>
       <r>    -5.0676     0.2266     8.0121 </r>
       <r>    -5.0143     9.3237     8.5092 </r>
       <r>    -4.9609    52.4884    11.3074 </r>
       <r>    -4.9076    44.7130    13.6910 </r>
       <r>    -4.8543     5.6982    13.9948 </r>
       <r>    -4.8010     0.0974    14.0000 </r>
       <r>    -4.7477     0.0002    14.0000 </r>
       <r>    -4.6944     0.0001    14.0000 </r>
       <r>    -4.6411     0.0389    14.0021 </r>
       <r>    -4.5878     2.1407    14.1162 </r>
       <r>    -4.5345    15.8562    14.9615 </r>
       <r>    -4.4811    26.2611    16.3615 </r>
       <r>    -4.4278    55.2460    19.3067 </r>
       <r>    -4.3745    44.7367    21.6916 </r>
       <r>    -4.3212     5.6872    21.9948 </r>
       <r>    -4.2679     0.0971    22.0000 </r>
       <r>    -4.2146     0.0002    22.0000 </r>
       <r>    -4.1613     0.0055    22.0003 </r>
       <r>    -4.1080     1.1583    22.0620 </r>
       <r>    -4.0547    30.8682    23.7076 </r>
       <r>    -4.0014   117.4134    29.9670 </r>
       <r>    -3.9480    69.4381    33.6688 </r>
       <r>    -3.8947     8.8052    34.1382 </r>
       <r>    -3.8414    32.8441    35.8891 </r>
       <r>    -3.7881    59.7556    39.0747 </r>
       <r>    -3.7348    16.6942    39.9647 </r>
       <r>    -3.6815     0.6585    39.9998 </r>
       <r>    -3.6282     0.0033    40.0000 </r>
       <r>    -3.5749     0.0000    40.0000 </r>
       <r>    -3.5216     0.0000    40.0000 </r>
       <r>    -3.4682     0.0047    40.0002 </r>
       <r>    -3.4149     0.8312    40.0446 </r>
       <r>    -3.3616    18.8158    41.0476 </r>
       <r>    -3.3083    60.6440    44.2806 </r>
       <r>    -3.2550    30.0509    45.8826 </r>
       <r>    -3.2017     2.1809    45.9989 </r>
       <r>    -3.1484     0.0207    46.0000 </r>
       <r>    -3.0951     0.0075    46.0004 </r>
       <r>    -3.0418     1.1331    46.0608 </r>
       <r>    -2.9885    21.9775    47.2324 </r>
       <r>    -2.9351    61.3649    50.5038 </r>
       <r>    -2.8818    27.6112    51.9758 </r>
       <r>    -2.8285    33.1900    53.7452 </r>
       <r>    -2.7752   117.8828    60.0296 </r>
       <r>    -2.7219    68.4520    63.6788 </r>
       <r>    -2.6686     5.9557    63.9963 </r>
       <r>    -2.6153     0.0695    64.0000 </r>
       <r>    -2.5620     0.0001    64.0000 </r>
       <r>    -2.5087     0.0000    64.0000 </r>
       <r>    -2.4553     0.0000    64.0000 </r>
       <r>    -2.4020     0.0000    64.0000 </r>
       <r>    -2.3487     0.0000    64.0000 </r>
       <r>    -2.2954     0.0000    64.0000 </r>
       <r>    -2.2421     0.0000    64.0000 </r>
       <r>    -2.1888     0.0000    64.0000 </r>
       <r>    -2.1355     0.0000    64.0000 </r>
       <r>    -2.0822     0.0000    64.0000 </r>
       <r>    -2.0289     0.0000    64.0000 </r>
       <r>    -1.9756     0.0000    64.0000 </r>
       <r>    -1.9222     0.0000    64.0000 </r>
       <r>    -1.8689     0.0000    64.0000 </r>
       <r>    -1.8156     0.0000    64.0000 </r>
       <r>    -1.7623     0.0000    64.0000 </r>
       <r>    -1.7090     0.0000    64.0000 </r>
       <r>    -1.6557     0.0000    64.0000 </r>
       <r>    -1.6024     0.0000    64.0000 </r>
       <r>    -1.5491     0.0000    64.0000 </r>
       <r>    -1.4958     0.0000    64.0000 </r>
       <r>    -1.4424     0.0000    64.0000 </r>
       <r>    -1.3891     0.0097    64.0005 </r>
       <r>    -1.3358     1.6727    64.0897 </r>
       <r>    -1.2825    37.3377    66.0802 </r>
       <r>    -1.2292   122.2017    72.5948 </r>
       <r>    -1.1759    86.5946    77.2112 </r>
       <r>    -1.1226    66.5704    80.7601 </r>
       <r>    -1.0693    39.1257    82.8459 </r>
       <r>    -1.0160    63.6994    86.2418 </r>
       <r>    -0.9627    67.1900    89.8237 </r>
       <r>    -0.9093    61.5482    93.1049 </r>
       <r>    -0.8560    16.1387    93.9653 </r>
       <r>    -0.8027     0.6483    93.9998 </r>
       <r>    -0.7494     0.0034    94.0000 </r>
       <r>    -0.6961     0.0000    94.0000 </r>
       <r>    -0.6428     0.0000    94.0000 </r>
       <r>    -0.5895     0.0000    94.0000 </r>
       <r>    -0.5362     0.0000    94.0000 </r>
       <r>    -0.4829     0.0000    94.0000 </r>
       <r>    -0.4295     0.0000    94.0000 </r>
       <r>    -0.3762     0.0038    94.0002 </r>
       <r>    -0.3229     0.5035    94.0270 </r>
       <r>    -0.2696     8.7353    94.4927 </r>
       <r>    -0.2163    33.4027    96.2735 </r>
       <r>    -0.1630    99.8073   101.5942 </r>
       <r>    -0.1097   102.2588   107.0457 </r>
       <r>    -0.0564    17.4769   107.9774 </r>
       <r>    -0.0031     0.4226   107.9999 </r>
       <r>     0.0502     0.0013   108.0000 </r>
       <r>     0.1036     0.0000   108.0000 </r>
       <r>     0.1569     0.0000   108.0000 </r>
       <r>     0.2102     0.0000   108.0000 </r>
       <r>     0.2635     0.0000   108.0000 </r>
       <r>     0.3168     0.0000   108.0000 </r>
       <r>     0.3701     0.0000   108.0000 </r>
       <r>     0.4234     0.0000   108.0000 </r>
       <r>     0.4767     0.0000   108.0000 </r>
       <r>     0.5300     0.0000   108.0000 </r>
       <r>     0.5834     0.0133   108.0007 </r>
       <r>     0.6367     1.6353   108.0879 </r>
       <r>     0.6900    26.2043   109.4848 </r>
       <r>     0.7433    61.3091   112.7533 </r>
       <r>     0.7966    22.2122   113.9374 </r>
       <r>     0.8499     1.1661   113.9996 </r>
       <r>     0.9032     0.0107   114.0001 </r>
       <r>     0.9565     0.5977   114.0320 </r>
       <r>     1.0098    15.9237   114.8809 </r>
       <r>     1.0631    59.4107   118.0481 </r>
       <r>     1.1165    33.7730   119.8486 </r>
       <r>     1.1698     2.8097   119.9984 </r>
       <r>     1.2231     0.0305   120.0000 </r>
       <r>     1.2764     0.0000   120.0000 </r>
       <r>     1.3297     0.0000   120.0000 </r>
       <r>     1.3830     0.0000   120.0000 </r>
       <r>     1.4363     0.0000   120.0000 </r>
       <r>     1.4896     0.0003   120.0000 </r>
       <r>     1.5429     0.1477   120.0079 </r>
       <r>     1.5963     9.7063   120.5253 </r>
       <r>     1.6496    87.5410   125.1922 </r>
       <r>     1.7029   145.6152   132.9550 </r>
       <r>     1.7562    79.5593   137.1964 </r>
       <r>     1.8095    14.6014   137.9748 </r>
       <r>     1.8628     0.4711   137.9999 </r>
       <r>     1.9161     0.0019   138.0000 </r>
       <r>     1.9694     0.0000   138.0000 </r>
       <r>     2.0227     0.0000   138.0000 </r>
       <r>     2.0760     0.0000   138.0000 </r>
       <r>     2.1294     0.0054   138.0003 </r>
       <r>     2.1827     0.9204   138.0494 </r>
       <r>     2.2360    19.9571   139.1133 </r>
       <r>     2.2893    63.6094   142.5043 </r>
       <r>     2.3426    75.3768   146.5227 </r>
       <r>     2.3959   146.7648   154.3468 </r>
       <r>     2.4492   112.5719   160.3481 </r>
       <r>     2.5025    29.3334   161.9119 </r>
       <r>     2.5558     1.6405   161.9993 </r>
       <r>     2.6092     0.0581   162.0024 </r>
       <r>     2.6625     4.6261   162.2490 </r>
       <r>     2.7158    61.7306   165.5399 </r>
       <r>     2.7691   120.7806   171.9788 </r>
       <r>     2.8224    36.3471   173.9165 </r>
       <r>     2.8757     1.5914   174.0013 </r>
       <r>     2.9290     3.6156   174.1941 </r>
       <r>     2.9823    53.3168   177.0364 </r>
       <r>     3.0356   121.0019   183.4871 </r>
       <r>     3.0889    44.6115   185.8654 </r>
       <r>     3.1423     2.5065   185.9990 </r>
       <r>     3.1956     0.0192   186.0000 </r>
       <r>     3.2489     0.0903   186.0048 </r>
       <r>     3.3022     6.3103   186.3412 </r>
       <r>     3.3555    65.3656   189.8259 </r>
       <r>     3.4088   120.8646   196.2693 </r>
       <r>     3.4621    81.1329   200.5945 </r>
       <r>     3.5154    54.3672   203.4928 </r>
       <r>     3.5687     9.2894   203.9881 </r>
       <r>     3.6221     0.3194   204.0051 </r>
       <r>     3.6754     7.4024   204.3997 </r>
       <r>     3.7287    82.0747   208.7752 </r>
       <r>     3.7820   164.7397   217.5575 </r>
       <r>     3.8353    75.3742   221.5758 </r>
       <r>     3.8886     7.8203   221.9927 </r>
       <r>     3.9419     0.2405   222.0055 </r>
       <r>     3.9952     3.9063   222.2137 </r>
       <r>     4.0485    27.3295   223.6707 </r>
       <r>     4.1018    65.7359   227.1751 </r>
       <r>     4.1552    46.9331   229.6771 </r>
       <r>     4.2085     5.9631   229.9950 </r>
       <r>     4.2618     1.5400   230.0771 </r>
       <r>     4.3151    25.3872   231.4305 </r>
       <r>     4.3684    77.5299   235.5637 </r>
       <r>     4.4217    82.4099   239.9570 </r>
       <r>     4.4750    35.8165   241.8664 </r>
       <r>     4.5283    14.8645   242.6588 </r>
       <r>     4.5816    40.2368   244.8039 </r>
       <r>     4.6350    20.8397   245.9148 </r>
       <r>     4.6883     1.5816   245.9992 </r>
       <r>     4.7416     0.0329   246.0009 </r>
       <r>     4.7949     1.9357   246.1041 </r>
       <r>     4.8482    28.3802   247.6171 </r>
       <r>     4.9015    60.9820   250.8681 </r>
       <r>     4.9548    20.2579   251.9480 </r>
       <r>     5.0081     0.9692   251.9997 </r>
       <r>     5.0614     0.0060   252.0000 </r>
       <r>     5.1147     0.0000   252.0000 </r>
       <r>     5.1681     0.0000   252.0000 </r>
       <r>     5.2214     0.0116   252.0006 </r>
       <r>     5.2747     1.3017   252.0700 </r>
       <r>     5.3280    19.0033   253.0831 </r>
       <r>     5.3813    40.6479   255.2501 </r>
       <r>     5.4346    13.4267   255.9658 </r>
       <r>     5.4879     0.6368   255.9998 </r>
       <r>     5.5412     0.0039   256.0000 </r>
       <r>     5.5945     0.0000   256.0000 </r>
       <r>     5.6479     0.0000   256.0000 </r>
       <r>     5.7012     0.0000   256.0000 </r>
       <r>     5.7545     0.0000   256.0000 </r>
       <r>     5.8078     0.0000   256.0000 </r>
       <r>     5.8611     0.0000   256.0000 </r>
       <r>     5.9144     0.0000   256.0000 </r>
       <r>     5.9677     0.0000   256.0000 </r>
       <r>     6.0210     0.0000   256.0000 </r>
       <r>     6.0743     0.0000   256.0000 </r>
       <r>     6.1276     0.0000   256.0000 </r>
       <r>     6.1810     0.0000   256.0000 </r>
       <r>     6.2343     0.0000   256.0000 </r>
       <r>     6.2876     0.0000   256.0000 </r>
       <r>     6.3409     0.0000   256.0000 </r>
       <r>     6.3942     0.0001   256.0000 </r>
       <r>     6.4475     0.0612   256.0033 </r>
       <r>     6.5008     4.3152   256.2333 </r>
       <r>     6.5541    40.3122   258.3824 </r>
       <r>     6.6074    55.8026   261.3572 </r>
       <r>     6.6608    11.7164   261.9818 </r>
       <r>     6.7141     0.3393   261.9999 </r>
       <r>     6.7674     0.0012   262.0000 </r>
       <r>     6.8207     0.0000   262.0000 </r>
       <r>     6.8740     0.0135   262.0007 </r>
       <r>     6.9273     1.6705   262.0898 </r>
       <r>     6.9806    26.6057   263.5081 </r>
       <r>     7.0339    61.3905   266.7809 </r>
       <r>     7.0872    21.7557   267.9407 </r>
       <r>     7.1405     1.2632   268.0080 </r>
       <r>     7.1939     4.7208   268.2597 </r>
       <r>     7.2472    19.4421   269.2962 </r>
       <r>     7.3005    12.0935   269.9409 </r>
       <r>     7.3538     1.1022   269.9997 </r>
       <r>     7.4071     1.0463   270.0554 </r>
       <r>     7.4604    21.0806   271.1793 </r>
       <r>     7.5137    61.4824   274.4569 </r>
       <r>     7.5670    35.0057   276.3231 </r>
       <r>     7.6203    51.1864   279.0519 </r>
       <r>     7.6737    48.2754   281.6255 </r>
       <r>     7.7270    16.6211   282.5115 </r>
       <r>     7.7803    78.5782   286.7006 </r>
       <r>     7.8336   109.2942   292.5271 </r>
       <r>     7.8869    26.6055   293.9455 </r>
       <r>     7.9402     2.2890   294.0675 </r>
       <r>     7.9935    32.6573   295.8085 </r>
       <r>     8.0468   124.4816   302.4446 </r>
       <r>     8.1001    87.3416   307.1009 </r>
       <r>     8.1534    16.0308   307.9555 </r>
       <r>     8.2068     1.5478   308.0380 </r>
       <r>     8.2601    17.5657   308.9744 </r>
       <r>     8.3134    60.3364   312.1910 </r>
       <r>     8.3667    31.5350   313.8721 </r>
       <r>     8.4200     4.5917   314.1169 </r>
       <r>     8.4733    42.5004   316.3826 </r>
       <r>     8.5266   131.0563   323.3693 </r>
       <r>     8.5799    77.0120   327.4749 </r>
       <r>     8.6332     9.6104   327.9872 </r>
       <r>     8.6866     0.2389   328.0000 </r>
       <r>     8.7399     0.0009   328.0000 </r>
       <r>     8.7932     0.0000   328.0000 </r>
       <r>     8.8465     0.0000   328.0000 </r>
       <r>     8.8998     0.0000   328.0000 </r>
       <r>     8.9531     0.0000   328.0000 </r>
       <r>     9.0064     0.0000   328.0000 </r>
       <r>     9.0597     0.0000   328.0000 </r>
       <r>     9.1130     0.0000   328.0000 </r>
       <r>     9.1663     0.0000   328.0000 </r>
       <r>     9.2197     0.0000   328.0000 </r>
       <r>     9.2730     0.0000   328.0000 </r>
      </set>
     </set>
    </array>
   </total>
  </dos>
 </calculation>
 <structure name="finalpos" >
  <crystal>
   <varray name="basis" >
    <v>      10.93252578       0.00000000       0.00000000 </v>
    <v>       0.00000000      10.93252578       0.00000000 </v>
    <v>       0.00000000       0.00000000      10.93252578 </v>
   </varray>
   <i name="volume">   1306.65679237 </i>
   <varray name="rec_basis" >
    <v>       0.09147017       0.00000000       0.00000000 </v>
    <v>       0.00000000       0.09147017       0.00000000 </v>
    <v>       0.00000000       0.00000000       0.09147017 </v>
   </varray>
  </crystal>
  <varray name="positions" >
   <v>       0.44024411       0.43750000       0.43750000 </v>
   <v>       0.93750000       0.43750000       0.43750000 </v>
   <v>       0.43750000       0.93750000       0.43750000 </v>
   <v>       0.93750000       0.93750000       0.43750000 </v>
   <v>       0.43750000       0.43750000       0.93750000 </v>
   <v>       0.93750000       0.43750000       0.93750000 </v>
   <v>       0.43750000       0.93750000       0.93750000 </v>
   <v>       0.93750000       0.93750000       0.93750000 </v>
   <v>       0.43750000       0.18750000       0.18750000 </v>
   <v>       0.93750000       0.18750000       0.18750000 </v>
   <v>       0.43750000       0.68750000       0.18750000 </v>
   <v>       0.93750000       0.68750000       0.18750000 </v>
   <v>       0.43750000       0.18750000       0.68750000 </v>
   <v>       0.93750000       0.18750000       0.68750000 </v>
   <v>       0.43750000       0.68750000       0.68750000 </v>
   <v>       0.93750000       0.68750000       0.68750000 </v>
   <v>       0.18750000       0.43750000       0.18750000 </v>
   <v>       0.68750000       0.43750000       0.18750000 </v>
   <v>       0.18750000       0.93750000       0.18750000 </v>
   <v>       0.68750000       0.93750000       0.18750000 </v>
   <v>       0.18750000       0.43750000       0.68750000 </v>
   <v>       0.68750000       0.43750000       0.68750000 </v>
   <v>       0.18750000       0.93750000       0.68750000 </v>
   <v>       0.68750000       0.93750000       0.68750000 </v>
   <v>       0.18750000       0.18750000       0.43750000 </v>
   <v>       0.68750000       0.18750000       0.43750000 </v>
   <v>       0.18750000       0.68750000       0.43750000 </v>
   <v>       0.68750000       0.68750000       0.43750000 </v>
   <v>       0.18750000       0.18750000       0.93750000 </v>
   <v>       0.68750000       0.18750000       0.93750000 </v>
   <v>       0.18750000       0.68750000       0.93750000 </v>
   <v>       0.68750000       0.68750000       0.93750000 </v>
   <v>       0.06250000       0.06250000       0.06250000 </v>
   <v>       0.56250000       0.06250000       0.06250000 </v>
   <v>       0.06250000       0.56250000       0.05975589 </v>
   <v>       0.56250000       0.56250000       0.06250000 </v>
   <v>       0.06250000       0.06250000       0.56250000 </v>
   <v>       0.56250000       0.06250000       0.56250000 </v>
   <v>       0.06250000       0.56250000       0.56250000 </v>
   <v>       0.56250000       0.56250000       0.56250000 </v>
   <v>       0.06250000       0.31250000       0.31250000 </v>
   <v>       0.56250000       0.31250000       0.31250000 </v>
   <v>       0.06250000       0.81250000       0.31250000 </v>
   <v>       0.56250000       0.81250000       0.31250000 </v>
   <v>       0.06250000       0.31250000       0.81250000 </v>
   <v>       0.56250000       0.31250000       0.81250000 </v>
   <v>       0.06250000       0.81250000       0.81250000 </v>
   <v>       0.56250000       0.81250000       0.81250000 </v>
   <v>       0.31250000       0.06250000       0.31250000 </v>
   <v>       0.81250000       0.06250000       0.31250000 </v>
   <v>       0.31250000       0.56250000       0.31250000 </v>
   <v>       0.81250000       0.56250000       0.31250000 </v>
   <v>       0.31250000       0.06250000       0.81250000 </v>
   <v>       0.81250000       0.06250000       0.81250000 </v>
   <v>       0.31250000       0.56250000       0.81250000 </v>
   <v>       0.81250000       0.56250000       0.81250000 </v>
   <v>       0.31250000       0.31250000       0.06250000 </v>
   <v>       0.81250000       0.31250000       0.06250000 </v>
   <v>       0.31250000       0.81250000       0.06250000 </v>
   <v>       0.81250000       0.81250000       0.06250000 </v>
   <v>       0.31250000       0.31250000       0.56250000 </v>
   <v>       0.81250000       0.31250000       0.56250000 </v>
   <v>       0.31250000       0.81250000       0.56250000 </v>
   <v>       0.81250000       0.81250000       0.56250000 </v>
  </varray>
 </structure>
</modeling>
