<?xml version="1.0" encoding="ISO-8859-1"?>
<modeling>
 <generator>
  <i name="program" type="string">vasp </i>
  <i name="version" type="string">5.4.1  </i>
  <i name="subversion" type="string">05Feb16 (build Mar 26 2016 11:58:25) complex                          parallel </i>
  <i name="platform" type="string">IFC91_ompi </i>
  <i name="date" type="string">2017 03 12 </i>
  <i name="time" type="string">12:16:56 </i>
 </generator>
 <incar>
  <i type="string" name="PREC">accurate</i>
  <i type="int" name="IALGO">    38</i>
  <i type="logical" name="ADDGRID"> T  </i>
  <i type="int" name="NELMIN">     5</i>
  <i type="int" name="IBRION">    -1</i>
  <i name="EDIFF">      0.00000001</i>
  <i name="ENCUT">    300.00000000</i>
  <i type="logical" name="LREAL"> F  </i>
  <i type="int" name="ISMEAR">     0</i>
  <i name="SIGMA">      0.05000000</i>
  <i type="logical" name="LWAVE"> F  </i>
  <i type="logical" name="LCHARG"> F  </i>
  <v type="int" name="KPOINT_BSE">    -1     0     0     0</v>
 </incar>
 <kpoints>
  <generation param="Monkhorst-Pack">
   <v type="int" name="divisions">       2        2        2 </v>
   <v name="usershift">      0.00000000       0.00000000       0.00000000 </v>
   <v name="genvec1">      0.50000000       0.00000000       0.00000000 </v>
   <v name="genvec2">      0.00000000       0.50000000       0.00000000 </v>
   <v name="genvec3">      0.00000000       0.00000000       0.50000000 </v>
   <v name="shift">      0.50000000       0.50000000       0.50000000 </v>
  </generation>
  <varray name="kpointlist" >
   <v>       0.25000000       0.25000000       0.25000000 </v>
   <v>      -0.25000000       0.25000000       0.25000000 </v>
   <v>       0.25000000      -0.25000000       0.25000000 </v>
  </varray>
  <varray name="weights" >
   <v>       0.25000000 </v>
   <v>       0.25000000 </v>
   <v>       0.50000000 </v>
  </varray>
 </kpoints>
 <parameters>
  <separator name="general" >
   <i type="string" name="SYSTEM">unknown system</i>
   <i type="logical" name="LCOMPAT"> F  </i>
  </separator>
  <separator name="electronic" >
   <i type="string" name="PREC">accura</i>
   <i name="ENMAX">    300.00000000</i>
   <i name="ENAUG">    322.06900000</i>
   <i name="EDIFF">      0.00000001</i>
   <i type="int" name="IALGO">    38</i>
   <i type="int" name="IWAVPR">    10</i>
   <i type="int" name="NBANDS">   164</i>
   <i name="NELECT">    256.00000000</i>
   <i type="int" name="TURBO">     0</i>
   <i type="int" name="IRESTART">     0</i>
   <i type="int" name="NREBOOT">     0</i>
   <i type="int" name="NMIN">     0</i>
   <i name="EREF">      0.00000000</i>
   <separator name="electronic smearing" >
    <i type="int" name="ISMEAR">     0</i>
    <i name="SIGMA">      0.05000000</i>
    <i name="KSPACING">      0.50000000</i>
    <i type="logical" name="KGAMMA"> T  </i>
   </separator>
   <separator name="electronic projectors" >
    <i type="logical" name="LREAL"> F  </i>
    <v name="ROPT">      0.00000000</v>
    <i type="int" name="LMAXPAW">  -100</i>
    <i type="int" name="LMAXMIX">     2</i>
    <i type="logical" name="NLSPLINE"> F  </i>
   </separator>
   <separator name="electronic startup" >
    <i type="int" name="ISTART">     0</i>
    <i type="int" name="ICHARG">     2</i>
    <i type="int" name="INIWAV">     1</i>
   </separator>
   <separator name="electronic spin" >
    <i type="int" name="ISPIN">     1</i>
    <i type="logical" name="LNONCOLLINEAR"> F  </i>
    <v name="MAGMOM">      1.00000000      1.00000000      1.00000000      1.00000000      1.00000000      1.00000000      1.00000000      1.00000000      1.00000000      1.00000000      1.00000000      1.00000000      1.00000000      1.00000000      1.00000000      1.00000000      1.00000000      1.00000000      1.00000000      1.00000000
      1.00000000      1.00000000      1.00000000      1.00000000      1.00000000      1.00000000      1.00000000      1.00000000      1.00000000      1.00000000      1.00000000      1.00000000      1.00000000      1.00000000      1.00000000      1.00000000      1.00000000      1.00000000      1.00000000      1.00000000
      1.00000000      1.00000000      1.00000000      1.00000000      1.00000000      1.00000000      1.00000000      1.00000000      1.00000000      1.00000000      1.00000000      1.00000000      1.00000000      1.00000000      1.00000000      1.00000000      1.00000000      1.00000000      1.00000000      1.00000000
      1.00000000      1.00000000      1.00000000      1.00000000</v>
    <i name="NUPDOWN">     -1.00000000</i>
    <i type="logical" name="LSORBIT"> F  </i>
    <v name="SAXIS">      0.00000000      0.00000000      1.00000000</v>
    <i type="logical" name="LSPIRAL"> F  </i>
    <v name="QSPIRAL">      0.00000000      0.00000000      0.00000000</v>
    <i type="logical" name="LZEROZ"> F  </i>
   </separator>
   <separator name="electronic exchange-correlation" >
    <i type="logical" name="LASPH"> F  </i>
    <i type="logical" name="LMETAGGA"> F  </i>
   </separator>
   <separator name="electronic convergence" >
    <i type="int" name="NELM">    60</i>
    <i type="int" name="NELMDL">    -5</i>
    <i type="int" name="NELMIN">     5</i>
    <i name="ENINI">    300.00000000</i>
    <separator name="electronic convergence detail" >
     <i type="logical" name="LDIAG"> T  </i>
     <i type="logical" name="LSUBROT"> F  </i>
     <i name="WEIMIN">      0.00000000</i>
     <i name="EBREAK">      0.00000000</i>
     <i name="DEPER">      0.30000000</i>
     <i type="int" name="NRMM">     4</i>
     <i name="TIME">      0.40000000</i>
    </separator>
   </separator>
   <separator name="electronic mixer" >
    <i name="AMIX">      0.40000000</i>
    <i name="BMIX">      1.00000000</i>
    <i name="AMIN">      0.10000000</i>
    <i name="AMIX_MAG">      1.60000000</i>
    <i name="BMIX_MAG">      1.00000000</i>
    <separator name="electronic mixer details" >
     <i type="int" name="IMIX">     4</i>
     <i type="logical" name="MIXFIRST"> F  </i>
     <i type="int" name="MAXMIX">   -45</i>
     <i name="WC">    100.00000000</i>
     <i type="int" name="INIMIX">     1</i>
     <i type="int" name="MIXPRE">     1</i>
     <i type="int" name="MREMOVE">     5</i>
    </separator>
   </separator>
   <separator name="electronic dipolcorrection" >
    <i type="logical" name="LDIPOL"> F  </i>
    <i type="logical" name="LMONO"> F  </i>
    <i type="int" name="IDIPOL">     0</i>
    <i name="EPSILON">      1.00000000</i>
    <v name="DIPOL">   -100.00000000   -100.00000000   -100.00000000</v>
    <i name="EFIELD">      0.00000000</i>
   </separator>
  </separator>
  <separator name="grids" >
   <i type="int" name="NGX">    64</i>
   <i type="int" name="NGY">    64</i>
   <i type="int" name="NGZ">    64</i>
   <i type="int" name="NGXF">   128</i>
   <i type="int" name="NGYF">   128</i>
   <i type="int" name="NGZF">   128</i>
   <i type="logical" name="ADDGRID"> T  </i>
  </separator>
  <separator name="ionic" >
   <i type="int" name="NSW">     0</i>
   <i type="int" name="IBRION">    -1</i>
   <i type="int" name="ISIF">     2</i>
   <i name="PSTRESS">      0.00000000</i>
   <i name="EDIFFG">      0.00000010</i>
   <i type="int" name="NFREE">     0</i>
   <i name="POTIM">      0.50000000</i>
   <i name="SMASS">     -3.00000000</i>
   <i name="SCALEE">      1.00000000</i>
  </separator>
  <separator name="ionic md" >
   <i name="TEBEG">      0.00010000</i>
   <i name="TEEND">      0.00010000</i>
   <i type="int" name="NBLOCK">     1</i>
   <i type="int" name="KBLOCK">     1</i>
   <i type="int" name="NPACO">   256</i>
   <i name="APACO">     16.00000000</i>
  </separator>
  <separator name="symmetry" >
   <i type="int" name="ISYM">     2</i>
   <i name="SYMPREC">      0.00001000</i>
  </separator>
  <separator name="dos" >
   <i type="logical" name="LORBIT"> F  </i>
   <v name="RWIGS">     -1.00000000</v>
   <i type="int" name="NEDOS">   301</i>
   <i name="EMIN">     10.00000000</i>
   <i name="EMAX">    -10.00000000</i>
   <i name="EFERMI">      0.00000000</i>
  </separator>
  <separator name="writing" >
   <i type="int" name="NWRITE">     2</i>
   <i type="logical" name="LWAVE"> F  </i>
   <i type="logical" name="LCHARG"> F  </i>
   <i type="logical" name="LPARD"> F  </i>
   <i type="logical" name="LVTOT"> F  </i>
   <i type="logical" name="LVHAR"> F  </i>
   <i type="logical" name="LELF"> F  </i>
   <i type="logical" name="LOPTICS"> F  </i>
   <v name="STM">      0.00000000      0.00000000      0.00000000      0.00000000      0.00000000      0.00000000      0.00000000</v>
  </separator>
  <separator name="performance" >
   <i type="int" name="NPAR">     4</i>
   <i type="int" name="NSIM">     4</i>
   <i type="int" name="NBLK">    -1</i>
   <i type="logical" name="LPLANE"> T  </i>
   <i type="logical" name="LSCALAPACK"> T  </i>
   <i type="logical" name="LSCAAWARE"> F  </i>
   <i type="logical" name="LSCALU"> F  </i>
   <i type="logical" name="LASYNC"> F  </i>
   <i type="logical" name="LORBITALREAL"> F  </i>
  </separator>
  <separator name="miscellaneous" >
   <i type="int" name="IDIOT">     3</i>
   <i type="logical" name="LMUSIC"> F  </i>
   <v name="POMASS">     28.08500000</v>
   <v name="DARWINR">      0.00000000</v>
   <v name="DARWINV">      1.00000000</v>
   <i type="logical" name="LCORR"> T  </i>
  </separator>
  <i type="logical" name="GGA_COMPAT"> T  </i>
  <i type="logical" name="LBERRY"> F  </i>
  <i type="int" name="ICORELEVEL">     0</i>
  <i type="logical" name="LDAU"> F  </i>
  <i type="int" name="I_CONSTRAINED_M">     0</i>
  <separator name="electronic exchange-correlation" >
   <i type="string" name="GGA">--</i>
   <i type="int" name="VOSKOWN">     0</i>
   <i type="logical" name="LHFCALC"> F  </i>
   <i type="string" name="PRECFOCK"></i>
   <i type="logical" name="LSYMGRAD"> F  </i>
   <i type="logical" name="LHFONE"> F  </i>
   <i type="logical" name="LRHFCALC"> F  </i>
   <i type="logical" name="LTHOMAS"> F  </i>
   <i type="logical" name="LMODELHF"> F  </i>
   <i name="ENCUT4O">     -1.00000000</i>
   <i type="int" name="EXXOEP">     0</i>
   <i type="int" name="FOURORBIT">     0</i>
   <i name="AEXX">      0.00000000</i>
   <i name="HFALPHA">      0.00000000</i>
   <i name="MCALPHA">      0.00000000</i>
   <i name="ALDAX">      1.00000000</i>
   <i name="AGGAX">      1.00000000</i>
   <i name="ALDAC">      1.00000000</i>
   <i name="AGGAC">      1.00000000</i>
   <i type="int" name="NKREDX">     1</i>
   <i type="int" name="NKREDY">     1</i>
   <i type="int" name="NKREDZ">     1</i>
   <i type="logical" name="SHIFTRED"> F  </i>
   <i type="logical" name="ODDONLY"> F  </i>
   <i type="logical" name="EVENONLY"> F  </i>
   <i type="int" name="LMAXFOCK">     0</i>
   <i type="int" name="NMAXFOCKAE">     0</i>
   <i type="logical" name="LFOCKAEDFT"> F  </i>
   <i name="HFSCREEN">      0.00000000</i>
   <i name="HFSCREENC">      0.00000000</i>
   <i type="int" name="NBANDSGWLOW">     0</i>
  </separator>
  <separator name="vdW DFT" >
   <i type="logical" name="LUSE_VDW"> F  </i>
   <i name="Zab_VDW">     -0.84910000</i>
   <i name="PARAM1">      0.12340000</i>
   <i name="PARAM2">      1.00000000</i>
   <i name="PARAM3">      0.00000000</i>
  </separator>
  <separator name="model GW" >
   <i type="int" name="MODEL_GW">     0</i>
   <i name="MODEL_EPS0">     12.24990743</i>
   <i name="MODEL_ALPHA">      1.00000000</i>
  </separator>
  <separator name="linear response parameters" >
   <i type="logical" name="LEPSILON"> F  </i>
   <i type="logical" name="LRPA"> F  </i>
   <i type="logical" name="LNABLA"> F  </i>
   <i type="logical" name="LVEL"> F  </i>
   <i type="int" name="KINTER">     0</i>
   <i name="CSHIFT">      0.10000000</i>
   <i name="OMEGAMAX">     -1.00000000</i>
   <i name="DEG_THRESHOLD">      0.00200000</i>
  </separator>
  <separator name="orbital magnetization" >
   <i type="logical" name="NUCIND"> F  </i>
   <v name="MAGPOS">      0.00000000      0.00000000      0.00000000</v>
   <i type="logical" name="LNICSALL"> T  </i>
   <i type="logical" name="ORBITALMAG"> F  </i>
   <i type="logical" name="LMAGBLOCH"> F  </i>
   <i type="logical" name="LCHIMAG"> F  </i>
   <i type="logical" name="LGAUGE"> T  </i>
   <i type="int" name="MAGATOM">     0</i>
   <v name="MAGDIPOL">      0.00000000      0.00000000      0.00000000</v>
   <v name="AVECCONST">      0.00000000      0.00000000      0.00000000</v>
  </separator>
  <separator name="response functions" >
   <i type="logical" name="LADDER"> F  </i>
   <i type="logical" name="LFXC"> F  </i>
   <i type="logical" name="LHARTREE"> T  </i>
   <i type="int" name="IBSE">     0</i>
   <v type="int" name="KPOINT">    -1     0     0     0</v>
   <i type="logical" name="LTCTE"> F  </i>
   <i type="logical" name="LTETE"> F  </i>
   <i type="logical" name="LTRIPLET"> F  </i>
   <i type="logical" name="LFXCEPS"> F  </i>
   <i type="logical" name="LFXHEG"> F  </i>
   <i type="int" name="NATURALO">     0</i>
   <i type="logical" name="L2ORDER"> F  </i>
   <i type="logical" name="LUSEW"> F  </i>
   <i name="ENCUTGW">     -2.00000000</i>
   <i name="ENCUTGWSOFT">     -2.00000000</i>
   <i name="ENCUTLF">     -1.00000000</i>
   <i type="int" name="LMAXMP2">    -1</i>
   <i name="SCISSOR">      0.00000000</i>
   <i type="int" name="NOMEGA">     0</i>
   <i type="int" name="NOMEGAR">     0</i>
   <i type="int" name="NBANDSGW">    -1</i>
   <i type="int" name="NBANDSO">    -1</i>
   <i type="int" name="NBANDSV">    -1</i>
   <i type="int" name="NELM">     1</i>
   <i type="int" name="NELMHF">     1</i>
   <i type="int" name="DIM">     3</i>
   <i type="int" name="ANTIRES">     0</i>
   <i name="OMEGAMAX">    -30.00000000</i>
   <i name="OMEGAMIN">    -30.00000000</i>
   <i name="OMEGATL">   -200.00000000</i>
   <i type="int" name="OMEGAGRID">     0</i>
   <i name="CSHIFT">     -0.10000000</i>
   <i type="logical" name="SELFENERGY"> F  </i>
   <i type="logical" name="LSPECTRAL"> F  </i>
   <i type="logical" name="LSPECTRALGW"> F  </i>
   <i type="logical" name="LSINGLES"> F  </i>
   <i type="logical" name="LFERMIGW"> F  </i>
   <i type="logical" name="ODDONLYGW"> F  </i>
   <i type="logical" name="EVENONLYGW"> F  </i>
   <i type="int" name="NKREDLFX">     1</i>
   <i type="int" name="NKREDLFY">     1</i>
   <i type="int" name="NKREDLFZ">     1</i>
   <i type="int" name="MAXMEM">  1800</i>
   <i type="int" name="TELESCOPE">     0</i>
   <i type="int" name="TAUPAR">     1</i>
   <i type="int" name="OMEGAPAR">    -1</i>
   <i name="LAMBDA">      1.00000000</i>
  </separator>
  <separator name="External order field" >
   <i name="OFIELD_KAPPA">      0.00000000</i>
   <v name="OFIELD_K">      0.00000000      0.00000000      0.00000000</v>
   <i name="OFIELD_Q6_NEAR">      0.00000000</i>
   <i name="OFIELD_Q6_FAR">      0.00000000</i>
   <i name="OFIELD_A">      0.00000000</i>
  </separator>
 </parameters>
 <atominfo>
  <atoms>      64 </atoms>
  <types>       1 </types>
  <array name="atoms" >
   <dimension dim="1">ion</dimension>
   <field type="string">element</field>
   <field type="int">atomtype</field>
   <set>
    <rc><c>Si</c><c>   1</c></rc>
    <rc><c>Si</c><c>   1</c></rc>
    <rc><c>Si</c><c>   1</c></rc>
    <rc><c>Si</c><c>   1</c></rc>
    <rc><c>Si</c><c>   1</c></rc>
    <rc><c>Si</c><c>   1</c></rc>
    <rc><c>Si</c><c>   1</c></rc>
    <rc><c>Si</c><c>   1</c></rc>
    <rc><c>Si</c><c>   1</c></rc>
    <rc><c>Si</c><c>   1</c></rc>
    <rc><c>Si</c><c>   1</c></rc>
    <rc><c>Si</c><c>   1</c></rc>
    <rc><c>Si</c><c>   1</c></rc>
    <rc><c>Si</c><c>   1</c></rc>
    <rc><c>Si</c><c>   1</c></rc>
    <rc><c>Si</c><c>   1</c></rc>
    <rc><c>Si</c><c>   1</c></rc>
    <rc><c>Si</c><c>   1</c></rc>
    <rc><c>Si</c><c>   1</c></rc>
    <rc><c>Si</c><c>   1</c></rc>
    <rc><c>Si</c><c>   1</c></rc>
    <rc><c>Si</c><c>   1</c></rc>
    <rc><c>Si</c><c>   1</c></rc>
    <rc><c>Si</c><c>   1</c></rc>
    <rc><c>Si</c><c>   1</c></rc>
    <rc><c>Si</c><c>   1</c></rc>
    <rc><c>Si</c><c>   1</c></rc>
    <rc><c>Si</c><c>   1</c></rc>
    <rc><c>Si</c><c>   1</c></rc>
    <rc><c>Si</c><c>   1</c></rc>
    <rc><c>Si</c><c>   1</c></rc>
    <rc><c>Si</c><c>   1</c></rc>
    <rc><c>Si</c><c>   1</c></rc>
    <rc><c>Si</c><c>   1</c></rc>
    <rc><c>Si</c><c>   1</c></rc>
    <rc><c>Si</c><c>   1</c></rc>
    <rc><c>Si</c><c>   1</c></rc>
    <rc><c>Si</c><c>   1</c></rc>
    <rc><c>Si</c><c>   1</c></rc>
    <rc><c>Si</c><c>   1</c></rc>
    <rc><c>Si</c><c>   1</c></rc>
    <rc><c>Si</c><c>   1</c></rc>
    <rc><c>Si</c><c>   1</c></rc>
    <rc><c>Si</c><c>   1</c></rc>
    <rc><c>Si</c><c>   1</c></rc>
    <rc><c>Si</c><c>   1</c></rc>
    <rc><c>Si</c><c>   1</c></rc>
    <rc><c>Si</c><c>   1</c></rc>
    <rc><c>Si</c><c>   1</c></rc>
    <rc><c>Si</c><c>   1</c></rc>
    <rc><c>Si</c><c>   1</c></rc>
    <rc><c>Si</c><c>   1</c></rc>
    <rc><c>Si</c><c>   1</c></rc>
    <rc><c>Si</c><c>   1</c></rc>
    <rc><c>Si</c><c>   1</c></rc>
    <rc><c>Si</c><c>   1</c></rc>
    <rc><c>Si</c><c>   1</c></rc>
    <rc><c>Si</c><c>   1</c></rc>
    <rc><c>Si</c><c>   1</c></rc>
    <rc><c>Si</c><c>   1</c></rc>
    <rc><c>Si</c><c>   1</c></rc>
    <rc><c>Si</c><c>   1</c></rc>
    <rc><c>Si</c><c>   1</c></rc>
    <rc><c>Si</c><c>   1</c></rc>
   </set>
  </array>
  <array name="atomtypes" >
   <dimension dim="1">type</dimension>
   <field type="int">atomspertype</field>
   <field type="string">element</field>
   <field>mass</field>
   <field>valence</field>
   <field type="string">pseudopotential</field>
   <set>
    <rc><c>  64</c><c>Si</c><c>     28.08500000</c><c>      4.00000000</c><c>  PAW_PBE Si 05Jan2001                  </c></rc>
   </set>
  </array>
 </atominfo>
 <structure name="initialpos" >
  <crystal>
   <varray name="basis" >
    <v>      10.93252578       0.00000000       0.00000000 </v>
    <v>       0.00000000      10.93252578       0.00000000 </v>
    <v>       0.00000000       0.00000000      10.93252578 </v>
   </varray>
   <i name="volume">   1306.65679237 </i>
   <varray name="rec_basis" >
    <v>       0.09147017       0.00000000       0.00000000 </v>
    <v>       0.00000000       0.09147017       0.00000000 </v>
    <v>       0.00000000       0.00000000       0.09147017 </v>
   </varray>
  </crystal>
  <varray name="positions" >
   <v>       0.44024411       0.43750000       0.43750000 </v>
   <v>       0.93750000       0.43750000       0.43750000 </v>
   <v>       0.43750000       0.93750000       0.43750000 </v>
   <v>       0.93750000       0.93750000       0.43750000 </v>
   <v>       0.43750000       0.43750000       0.93750000 </v>
   <v>       0.93750000       0.43750000       0.93750000 </v>
   <v>       0.43750000       0.93750000       0.93750000 </v>
   <v>       0.93750000       0.93750000       0.93750000 </v>
   <v>       0.43750000       0.18750000       0.18750000 </v>
   <v>       0.93750000       0.18750000       0.18750000 </v>
   <v>       0.43750000       0.68750000       0.18750000 </v>
   <v>       0.93750000       0.68750000       0.18750000 </v>
   <v>       0.43750000       0.18750000       0.68750000 </v>
   <v>       0.93750000       0.18750000       0.68750000 </v>
   <v>       0.43750000       0.68750000       0.68750000 </v>
   <v>       0.93750000       0.68750000       0.68750000 </v>
   <v>       0.18750000       0.43750000       0.18750000 </v>
   <v>       0.68750000       0.43750000       0.18750000 </v>
   <v>       0.18750000       0.93750000       0.18750000 </v>
   <v>       0.68750000       0.93750000       0.18750000 </v>
   <v>       0.18750000       0.43750000       0.68750000 </v>
   <v>       0.68750000       0.43750000       0.68750000 </v>
   <v>       0.18750000       0.93750000       0.68750000 </v>
   <v>       0.68750000       0.93750000       0.68750000 </v>
   <v>       0.18750000       0.18750000       0.43750000 </v>
   <v>       0.68750000       0.18750000       0.43750000 </v>
   <v>       0.18750000       0.68750000       0.43750000 </v>
   <v>       0.68750000       0.68750000       0.43750000 </v>
   <v>       0.18750000       0.18750000       0.93750000 </v>
   <v>       0.68750000       0.18750000       0.93750000 </v>
   <v>       0.18750000       0.68750000       0.93750000 </v>
   <v>       0.68750000       0.68750000       0.93750000 </v>
   <v>       0.06250000       0.06250000       0.06250000 </v>
   <v>       0.55975589       0.06250000       0.06250000 </v>
   <v>       0.06250000       0.56250000       0.06250000 </v>
   <v>       0.56250000       0.56250000       0.06250000 </v>
   <v>       0.06250000       0.06250000       0.56250000 </v>
   <v>       0.56250000       0.06250000       0.56250000 </v>
   <v>       0.06250000       0.56250000       0.56250000 </v>
   <v>       0.56250000       0.56250000       0.56250000 </v>
   <v>       0.06250000       0.31250000       0.31250000 </v>
   <v>       0.56250000       0.31250000       0.31250000 </v>
   <v>       0.06250000       0.81250000       0.31250000 </v>
   <v>       0.56250000       0.81250000       0.31250000 </v>
   <v>       0.06250000       0.31250000       0.81250000 </v>
   <v>       0.56250000       0.31250000       0.81250000 </v>
   <v>       0.06250000       0.81250000       0.81250000 </v>
   <v>       0.56250000       0.81250000       0.81250000 </v>
   <v>       0.31250000       0.06250000       0.31250000 </v>
   <v>       0.81250000       0.06250000       0.31250000 </v>
   <v>       0.31250000       0.56250000       0.31250000 </v>
   <v>       0.81250000       0.56250000       0.31250000 </v>
   <v>       0.31250000       0.06250000       0.81250000 </v>
   <v>       0.81250000       0.06250000       0.81250000 </v>
   <v>       0.31250000       0.56250000       0.81250000 </v>
   <v>       0.81250000       0.56250000       0.81250000 </v>
   <v>       0.31250000       0.31250000       0.06250000 </v>
   <v>       0.81250000       0.31250000       0.06250000 </v>
   <v>       0.31250000       0.81250000       0.06250000 </v>
   <v>       0.81250000       0.81250000       0.06250000 </v>
   <v>       0.31250000       0.31250000       0.56250000 </v>
   <v>       0.81250000       0.31250000       0.56250000 </v>
   <v>       0.31250000       0.81250000       0.56250000 </v>
   <v>       0.81250000       0.81250000       0.56250000 </v>
  </varray>
 </structure>
 <calculation>
  <scstep>
   <time name="dav">    3.18    3.18</time>
   <time name="total">    3.36    3.37</time>
   <energy>
    <i name="alphaZ">    105.52440745 </i>
    <i name="ewald">  -7265.47191636 </i>
    <i name="hartreedc">   -361.71173009 </i>
    <i name="XCdc">   -597.75714170 </i>
    <i name="pawpsdc">   5639.92317535 </i>
    <i name="pawaedc">  -4513.95313856 </i>
    <i name="eentropy">     -0.00017861 </i>
    <i name="bandstr">    856.47038585 </i>
    <i name="atom">   6596.14994790 </i>
    <i name="e_fr_energy">    459.17381122 </i>
    <i name="e_wo_entrp">    459.17398984 </i>
    <i name="e_0_energy">    459.17390053 </i>
   </energy>
  </scstep>
  <scstep>
   <time name="dav">    3.61    3.61</time>
   <time name="total">    3.62    3.62</time>
   <energy>
    <i name="e_fr_energy">   -299.97796639 </i>
    <i name="e_wo_entrp">   -299.97796639 </i>
    <i name="e_0_energy">   -299.97796639 </i>
   </energy>
  </scstep>
  <scstep>
   <time name="dav">    3.67    3.66</time>
   <time name="total">    3.67    3.67</time>
   <energy>
    <i name="e_fr_energy">   -350.82581598 </i>
    <i name="e_wo_entrp">   -350.82581598 </i>
    <i name="e_0_energy">   -350.82581598 </i>
   </energy>
  </scstep>
  <scstep>
   <time name="dav">    3.64    3.64</time>
   <time name="total">    3.64    3.64</time>
   <energy>
    <i name="e_fr_energy">   -352.26372837 </i>
    <i name="e_wo_entrp">   -352.26372837 </i>
    <i name="e_0_energy">   -352.26372837 </i>
   </energy>
  </scstep>
  <scstep>
   <time name="dav">    3.62    3.62</time>
   <time name="total">    3.84    3.90</time>
   <energy>
    <i name="e_fr_energy">   -352.31265335 </i>
    <i name="e_wo_entrp">   -352.31265335 </i>
    <i name="e_0_energy">   -352.31265335 </i>
   </energy>
  </scstep>
  <scstep>
   <time name="dav">    3.51    3.51</time>
   <time name="total">    3.91    3.92</time>
   <energy>
    <i name="e_fr_energy">   -348.58422031 </i>
    <i name="e_wo_entrp">   -348.58422031 </i>
    <i name="e_0_energy">   -348.58422031 </i>
   </energy>
  </scstep>
  <scstep>
   <time name="dav">    3.52    3.52</time>
   <time name="total">    3.91    3.92</time>
   <energy>
    <i name="e_fr_energy">   -346.87170865 </i>
    <i name="e_wo_entrp">   -346.87170865 </i>
    <i name="e_0_energy">   -346.87170865 </i>
   </energy>
  </scstep>
  <scstep>
   <time name="dav">    3.57    3.57</time>
   <time name="total">    3.97    3.98</time>
   <energy>
    <i name="e_fr_energy">   -346.89789647 </i>
    <i name="e_wo_entrp">   -346.89789647 </i>
    <i name="e_0_energy">   -346.89789647 </i>
   </energy>
  </scstep>
  <scstep>
   <time name="dav">    3.70    3.70</time>
   <time name="total">    4.10    4.11</time>
   <energy>
    <i name="e_fr_energy">   -346.90470269 </i>
    <i name="e_wo_entrp">   -346.90470269 </i>
    <i name="e_0_energy">   -346.90470269 </i>
   </energy>
  </scstep>
  <scstep>
   <time name="dav">    3.42    3.42</time>
   <time name="total">    3.82    3.84</time>
   <energy>
    <i name="e_fr_energy">   -346.90673373 </i>
    <i name="e_wo_entrp">   -346.90673373 </i>
    <i name="e_0_energy">   -346.90673373 </i>
   </energy>
  </scstep>
  <scstep>
   <time name="dav">    3.60    3.60</time>
   <time name="total">    4.00    4.02</time>
   <energy>
    <i name="e_fr_energy">   -346.90671043 </i>
    <i name="e_wo_entrp">   -346.90671043 </i>
    <i name="e_0_energy">   -346.90671043 </i>
   </energy>
  </scstep>
  <scstep>
   <time name="dav">    3.56    3.57</time>
   <time name="total">    3.96    3.97</time>
   <energy>
    <i name="e_fr_energy">   -346.90672496 </i>
    <i name="e_wo_entrp">   -346.90672496 </i>
    <i name="e_0_energy">   -346.90672496 </i>
   </energy>
  </scstep>
  <scstep>
   <time name="dav">    3.55    3.55</time>
   <time name="total">    3.95    3.96</time>
   <energy>
    <i name="e_fr_energy">   -346.90672555 </i>
    <i name="e_wo_entrp">   -346.90672555 </i>
    <i name="e_0_energy">   -346.90672555 </i>
   </energy>
  </scstep>
  <scstep>
   <time name="dav">    3.68    3.69</time>
   <time name="total">    4.08    4.09</time>
   <energy>
    <i name="e_fr_energy">   -346.90672618 </i>
    <i name="e_wo_entrp">   -346.90672618 </i>
    <i name="e_0_energy">   -346.90672618 </i>
   </energy>
  </scstep>
  <scstep>
   <time name="dav">    2.99    3.00</time>
   <time name="total">    3.40    3.45</time>
   <energy>
    <i name="e_fr_energy">   -346.90672597 </i>
    <i name="e_wo_entrp">   -346.90672597 </i>
    <i name="e_0_energy">   -346.90672597 </i>
   </energy>
  </scstep>
  <scstep>
   <time name="dav">    2.46    2.46</time>
   <time name="total">    2.86    2.87</time>
   <energy>
    <i name="e_fr_energy">   -346.90672604 </i>
    <i name="e_wo_entrp">   -346.90672604 </i>
    <i name="e_0_energy">   -346.90672604 </i>
   </energy>
  </scstep>
  <scstep>
   <time name="dav">    2.43    2.44</time>
   <time name="total">    2.83    2.84</time>
   <energy>
    <i name="e_fr_energy">   -346.90672602 </i>
    <i name="e_wo_entrp">   -346.90672602 </i>
    <i name="e_0_energy">   -346.90672602 </i>
   </energy>
  </scstep>
  <scstep>
   <time name="dav">    2.38    2.38</time>
   <time name="total">    2.78    2.79</time>
   <energy>
    <i name="e_fr_energy">   -346.90672603 </i>
    <i name="e_wo_entrp">   -346.90672603 </i>
    <i name="e_0_energy">   -346.90672603 </i>
   </energy>
  </scstep>
  <scstep>
   <time name="dav">    2.39    2.39</time>
   <time name="total">    2.57    2.57</time>
   <energy>
    <i name="alphaZ">    105.52440745 </i>
    <i name="ewald">  -7265.47191636 </i>
    <i name="hartreedc">   -485.14235479 </i>
    <i name="XCdc">   -577.61229998 </i>
    <i name="pawpsdc">  27883.43089627 </i>
    <i name="pawaedc"> -26764.14882212 </i>
    <i name="eentropy">      0.00000000 </i>
    <i name="bandstr">    160.36341559 </i>
    <i name="atom">   6596.14994790 </i>
    <i name="e_fr_energy">   -346.90672604 </i>
    <i name="e_wo_entrp">   -346.90672604 </i>
    <i name="e_0_energy">   -346.90672604 </i>
   </energy>
  </scstep>
  <structure>
   <crystal>
    <varray name="basis" >
     <v>      10.93252578       0.00000000       0.00000000 </v>
     <v>       0.00000000      10.93252578       0.00000000 </v>
     <v>       0.00000000       0.00000000      10.93252578 </v>
    </varray>
    <i name="volume">   1306.65679237 </i>
    <varray name="rec_basis" >
     <v>       0.09147017       0.00000000       0.00000000 </v>
     <v>       0.00000000       0.09147017       0.00000000 </v>
     <v>       0.00000000       0.00000000       0.09147017 </v>
    </varray>
   </crystal>
   <varray name="positions" >
    <v>       0.44024411       0.43750000       0.43750000 </v>
    <v>       0.93750000       0.43750000       0.43750000 </v>
    <v>       0.43750000       0.93750000       0.43750000 </v>
    <v>       0.93750000       0.93750000       0.43750000 </v>
    <v>       0.43750000       0.43750000       0.93750000 </v>
    <v>       0.93750000       0.43750000       0.93750000 </v>
    <v>       0.43750000       0.93750000       0.93750000 </v>
    <v>       0.93750000       0.93750000       0.93750000 </v>
    <v>       0.43750000       0.18750000       0.18750000 </v>
    <v>       0.93750000       0.18750000       0.18750000 </v>
    <v>       0.43750000       0.68750000       0.18750000 </v>
    <v>       0.93750000       0.68750000       0.18750000 </v>
    <v>       0.43750000       0.18750000       0.68750000 </v>
    <v>       0.93750000       0.18750000       0.68750000 </v>
    <v>       0.43750000       0.68750000       0.68750000 </v>
    <v>       0.93750000       0.68750000       0.68750000 </v>
    <v>       0.18750000       0.43750000       0.18750000 </v>
    <v>       0.68750000       0.43750000       0.18750000 </v>
    <v>       0.18750000       0.93750000       0.18750000 </v>
    <v>       0.68750000       0.93750000       0.18750000 </v>
    <v>       0.18750000       0.43750000       0.68750000 </v>
    <v>       0.68750000       0.43750000       0.68750000 </v>
    <v>       0.18750000       0.93750000       0.68750000 </v>
    <v>       0.68750000       0.93750000       0.68750000 </v>
    <v>       0.18750000       0.18750000       0.43750000 </v>
    <v>       0.68750000       0.18750000       0.43750000 </v>
    <v>       0.18750000       0.68750000       0.43750000 </v>
    <v>       0.68750000       0.68750000       0.43750000 </v>
    <v>       0.18750000       0.18750000       0.93750000 </v>
    <v>       0.68750000       0.18750000       0.93750000 </v>
    <v>       0.18750000       0.68750000       0.93750000 </v>
    <v>       0.68750000       0.68750000       0.93750000 </v>
    <v>       0.06250000       0.06250000       0.06250000 </v>
    <v>       0.55975589       0.06250000       0.06250000 </v>
    <v>       0.06250000       0.56250000       0.06250000 </v>
    <v>       0.56250000       0.56250000       0.06250000 </v>
    <v>       0.06250000       0.06250000       0.56250000 </v>
    <v>       0.56250000       0.06250000       0.56250000 </v>
    <v>       0.06250000       0.56250000       0.56250000 </v>
    <v>       0.56250000       0.56250000       0.56250000 </v>
    <v>       0.06250000       0.31250000       0.31250000 </v>
    <v>       0.56250000       0.31250000       0.31250000 </v>
    <v>       0.06250000       0.81250000       0.31250000 </v>
    <v>       0.56250000       0.81250000       0.31250000 </v>
    <v>       0.06250000       0.31250000       0.81250000 </v>
    <v>       0.56250000       0.31250000       0.81250000 </v>
    <v>       0.06250000       0.81250000       0.81250000 </v>
    <v>       0.56250000       0.81250000       0.81250000 </v>
    <v>       0.31250000       0.06250000       0.31250000 </v>
    <v>       0.81250000       0.06250000       0.31250000 </v>
    <v>       0.31250000       0.56250000       0.31250000 </v>
    <v>       0.81250000       0.56250000       0.31250000 </v>
    <v>       0.31250000       0.06250000       0.81250000 </v>
    <v>       0.81250000       0.06250000       0.81250000 </v>
    <v>       0.31250000       0.56250000       0.81250000 </v>
    <v>       0.81250000       0.56250000       0.81250000 </v>
    <v>       0.31250000       0.31250000       0.06250000 </v>
    <v>       0.81250000       0.31250000       0.06250000 </v>
    <v>       0.31250000       0.81250000       0.06250000 </v>
    <v>       0.81250000       0.81250000       0.06250000 </v>
    <v>       0.31250000       0.31250000       0.56250000 </v>
    <v>       0.81250000       0.31250000       0.56250000 </v>
    <v>       0.31250000       0.81250000       0.56250000 </v>
    <v>       0.81250000       0.81250000       0.56250000 </v>
   </varray>
  </structure>
  <varray name="forces" >
   <v>      -0.39341994      -0.00068997      -0.00068997 </v>
   <v>       0.00108406      -0.00075582      -0.00075582 </v>
   <v>       0.00279671      -0.00121342      -0.00092588 </v>
   <v>      -0.00079786      -0.00064951      -0.00060519 </v>
   <v>       0.00279671      -0.00092588      -0.00121342 </v>
   <v>      -0.00079786      -0.00060519      -0.00064951 </v>
   <v>      -0.10738798      -0.06610837      -0.06610837 </v>
   <v>       0.00085036      -0.00091022      -0.00091022 </v>
   <v>      -0.10871992       0.06890654       0.06890654 </v>
   <v>       0.00025104       0.00113770       0.00113770 </v>
   <v>      -0.01129907       0.00358485      -0.00144825 </v>
   <v>      -0.00061753       0.00083449       0.00041252 </v>
   <v>      -0.01129907      -0.00144825       0.00358485 </v>
   <v>      -0.00061753       0.00041252       0.00083449 </v>
   <v>      -0.01909421      -0.00208373      -0.00208373 </v>
   <v>       0.00051249       0.00052766       0.00052766 </v>
   <v>       0.00498335      -0.00203272       0.00485866 </v>
   <v>       0.00723824      -0.00187608      -0.00692580 </v>
   <v>       0.00129133       0.00067124      -0.00276652 </v>
   <v>      -0.09205670       0.06073590      -0.05913098 </v>
   <v>       0.00617640       0.00340052      -0.00630063 </v>
   <v>      -0.00033376       0.00344384       0.00500311 </v>
   <v>       0.00035606       0.00093405       0.00122645 </v>
   <v>       0.00245570       0.00147705      -0.00273337 </v>
   <v>       0.00498335       0.00485866      -0.00203272 </v>
   <v>       0.00723824      -0.00692580      -0.00187608 </v>
   <v>       0.00617640      -0.00630063       0.00340052 </v>
   <v>      -0.00033376       0.00500311       0.00344384 </v>
   <v>       0.00129133      -0.00276652       0.00067124 </v>
   <v>      -0.09205670      -0.05913098       0.06073590 </v>
   <v>       0.00035606       0.00122645       0.00093405 </v>
   <v>       0.00245570      -0.00273337       0.00147705 </v>
   <v>      -0.00108406       0.00075582       0.00075582 </v>
   <v>       0.39341994       0.00068997       0.00068997 </v>
   <v>       0.00079786       0.00064951       0.00060519 </v>
   <v>      -0.00279671       0.00121342       0.00092588 </v>
   <v>       0.00079786       0.00060519       0.00064951 </v>
   <v>      -0.00279671       0.00092588       0.00121342 </v>
   <v>      -0.00085036       0.00091022       0.00091022 </v>
   <v>       0.10738798       0.06610837       0.06610837 </v>
   <v>      -0.00025104      -0.00113770      -0.00113770 </v>
   <v>       0.10871992      -0.06890654      -0.06890654 </v>
   <v>       0.00061753      -0.00083449      -0.00041252 </v>
   <v>       0.01129907      -0.00358485       0.00144825 </v>
   <v>       0.00061753      -0.00041252      -0.00083449 </v>
   <v>       0.01129907       0.00144825      -0.00358485 </v>
   <v>      -0.00051249      -0.00052766      -0.00052766 </v>
   <v>       0.01909421       0.00208373       0.00208373 </v>
   <v>      -0.00723824       0.00187608       0.00692580 </v>
   <v>      -0.00498335       0.00203272      -0.00485866 </v>
   <v>       0.09205670      -0.06073590       0.05913098 </v>
   <v>      -0.00129133      -0.00067124       0.00276652 </v>
   <v>       0.00033376      -0.00344384      -0.00500311 </v>
   <v>      -0.00617640      -0.00340052       0.00630063 </v>
   <v>      -0.00245570      -0.00147705       0.00273337 </v>
   <v>      -0.00035606      -0.00093405      -0.00122645 </v>
   <v>      -0.00723824       0.00692580       0.00187608 </v>
   <v>      -0.00498335      -0.00485866       0.00203272 </v>
   <v>       0.00033376      -0.00500311      -0.00344384 </v>
   <v>      -0.00617640       0.00630063      -0.00340052 </v>
   <v>       0.09205670       0.05913098      -0.06073590 </v>
   <v>      -0.00129133       0.00276652      -0.00067124 </v>
   <v>      -0.00245570       0.00273337      -0.00147705 </v>
   <v>      -0.00035606      -0.00122645      -0.00093405 </v>
  </varray>
  <varray name="stress" >
   <v>      -0.01771554      -0.00013348      -0.00013348 </v>
   <v>      -0.00013347       0.02064993       0.66996520 </v>
   <v>      -0.00013347       0.66996520       0.02064993 </v>
  </varray>
  <energy>
   <i name="e_fr_energy">   -346.90672604 </i>
   <i name="e_wo_entrp">   -346.90672604 </i>
   <i name="e_0_energy">      0.00000000 </i>
  </energy>
  <time name="totalsc">   76.45   76.74</time>
  <eigenvalues>
   <array>
    <dimension dim="1">band</dimension>
    <dimension dim="2">kpoint</dimension>
    <dimension dim="3">spin</dimension>
    <field>eigene</field>
    <field>occ</field>
    <set>
     <set comment="spin 1">
      <set comment="kpoint 1">
       <r>   -5.9931    1.0000 </r>
       <r>   -5.4702    1.0000 </r>
       <r>   -5.4632    1.0000 </r>
       <r>   -5.4613    1.0000 </r>
       <r>   -4.9706    1.0000 </r>
       <r>   -4.9638    1.0000 </r>
       <r>   -4.9620    1.0000 </r>
       <r>   -4.5314    1.0000 </r>
       <r>   -4.4374    1.0000 </r>
       <r>   -4.4308    1.0000 </r>
       <r>   -4.4281    1.0000 </r>
       <r>   -4.0272    1.0000 </r>
       <r>   -4.0173    1.0000 </r>
       <r>   -4.0164    1.0000 </r>
       <r>   -4.0139    1.0000 </r>
       <r>   -4.0139    1.0000 </r>
       <r>   -4.0128    1.0000 </r>
       <r>   -3.8306    1.0000 </r>
       <r>   -3.8225    1.0000 </r>
       <r>   -3.8216    1.0000 </r>
       <r>   -3.3314    1.0000 </r>
       <r>   -3.3264    1.0000 </r>
       <r>   -3.3221    1.0000 </r>
       <r>   -2.9639    1.0000 </r>
       <r>   -2.9584    1.0000 </r>
       <r>   -2.9564    1.0000 </r>
       <r>   -2.8020    1.0000 </r>
       <r>   -2.7911    1.0000 </r>
       <r>   -2.7908    1.0000 </r>
       <r>   -2.7882    1.0000 </r>
       <r>   -2.7880    1.0000 </r>
       <r>   -2.7866    1.0000 </r>
       <r>   -1.2607    1.0000 </r>
       <r>   -1.2493    1.0000 </r>
       <r>   -1.2486    1.0000 </r>
       <r>   -1.2457    1.0000 </r>
       <r>   -1.2433    1.0000 </r>
       <r>   -1.2426    1.0000 </r>
       <r>   -1.1518    1.0000 </r>
       <r>   -1.1515    1.0000 </r>
       <r>   -1.1476    1.0000 </r>
       <r>   -1.0369    1.0000 </r>
       <r>   -1.0310    1.0000 </r>
       <r>   -1.0251    1.0000 </r>
       <r>   -0.9557    1.0000 </r>
       <r>   -0.9519    1.0000 </r>
       <r>   -0.9448    1.0000 </r>
       <r>   -0.2482    1.0000 </r>
       <r>   -0.1688    1.0000 </r>
       <r>   -0.1606    1.0000 </r>
       <r>   -0.1589    1.0000 </r>
       <r>   -0.1569    1.0000 </r>
       <r>   -0.1539    1.0000 </r>
       <r>   -0.1529    1.0000 </r>
       <r>    0.7046    1.0000 </r>
       <r>    0.7139    1.0000 </r>
       <r>    0.7175    1.0000 </r>
       <r>    1.0419    1.0000 </r>
       <r>    1.0489    1.0000 </r>
       <r>    1.0506    1.0000 </r>
       <r>    1.6502    1.0000 </r>
       <r>    1.6556    1.0000 </r>
       <r>    1.6565    1.0000 </r>
       <r>    1.6578    1.0000 </r>
       <r>    1.6598    1.0000 </r>
       <r>    1.6620    1.0000 </r>
       <r>    1.7151    1.0000 </r>
       <r>    1.7184    1.0000 </r>
       <r>    1.7186    1.0000 </r>
       <r>    2.2633    1.0000 </r>
       <r>    2.2667    1.0000 </r>
       <r>    2.2676    1.0000 </r>
       <r>    2.3672    1.0000 </r>
       <r>    2.3687    1.0000 </r>
       <r>    2.3694    1.0000 </r>
       <r>    2.3718    1.0000 </r>
       <r>    2.3767    1.0000 </r>
       <r>    2.3775    1.0000 </r>
       <r>    2.4220    1.0000 </r>
       <r>    2.4285    1.0000 </r>
       <r>    2.4318    1.0000 </r>
       <r>    2.7256    1.0000 </r>
       <r>    2.7330    1.0000 </r>
       <r>    2.7354    1.0000 </r>
       <r>    2.7358    1.0000 </r>
       <r>    2.7371    1.0000 </r>
       <r>    2.7417    1.0000 </r>
       <r>    2.9981    1.0000 </r>
       <r>    2.9999    1.0000 </r>
       <r>    3.0025    1.0000 </r>
       <r>    3.0093    1.0000 </r>
       <r>    3.0169    1.0000 </r>
       <r>    3.0184    1.0000 </r>
       <r>    3.3550    1.0000 </r>
       <r>    3.3615    1.0000 </r>
       <r>    3.3635    1.0000 </r>
       <r>    3.3767    1.0000 </r>
       <r>    3.3827    1.0000 </r>
       <r>    3.3850    1.0000 </r>
       <r>    3.4642    1.0000 </r>
       <r>    3.4682    1.0000 </r>
       <r>    3.4706    1.0000 </r>
       <r>    3.7287    1.0000 </r>
       <r>    3.7370    1.0000 </r>
       <r>    3.7388    1.0000 </r>
       <r>    3.7412    1.0000 </r>
       <r>    3.7426    1.0000 </r>
       <r>    3.7440    1.0000 </r>
       <r>    3.7781    1.0000 </r>
       <r>    3.7826    1.0000 </r>
       <r>    3.7853    1.0000 </r>
       <r>    4.0366    1.0000 </r>
       <r>    4.0980    1.0000 </r>
       <r>    4.0984    1.0000 </r>
       <r>    4.1043    1.0000 </r>
       <r>    4.3389    1.0000 </r>
       <r>    4.3434    1.0000 </r>
       <r>    4.3461    1.0000 </r>
       <r>    4.3963    1.0000 </r>
       <r>    4.4024    1.0000 </r>
       <r>    4.4057    1.0000 </r>
       <r>    4.5593    1.0000 </r>
       <r>    4.5688    1.0000 </r>
       <r>    4.8681    1.0000 </r>
       <r>    4.8732    1.0000 </r>
       <r>    4.8768    1.0000 </r>
       <r>    5.3466    1.0000 </r>
       <r>    5.3574    1.0000 </r>
       <r>    6.5600    0.0000 </r>
       <r>    6.5670    0.0000 </r>
       <r>    6.5681    0.0000 </r>
       <r>    6.9995    0.0000 </r>
       <r>    7.0060    0.0000 </r>
       <r>    7.0100    0.0000 </r>
       <r>    7.2352    0.0000 </r>
       <r>    7.4870    0.0000 </r>
       <r>    7.4930    0.0000 </r>
       <r>    7.4971    0.0000 </r>
       <r>    7.6152    0.0000 </r>
       <r>    7.6157    0.0000 </r>
       <r>    7.6232    0.0000 </r>
       <r>    7.7771    0.0000 </r>
       <r>    7.7788    0.0000 </r>
       <r>    7.7844    0.0000 </r>
       <r>    7.7980    0.0000 </r>
       <r>    7.8009    0.0000 </r>
       <r>    7.8072    0.0000 </r>
       <r>    8.0196    0.0000 </r>
       <r>    8.0255    0.0000 </r>
       <r>    8.0292    0.0000 </r>
       <r>    8.0309    0.0000 </r>
       <r>    8.0318    0.0000 </r>
       <r>    8.0354    0.0000 </r>
       <r>    8.0837    0.0000 </r>
       <r>    8.2918    0.0000 </r>
       <r>    8.2951    0.0000 </r>
       <r>    8.2987    0.0000 </r>
       <r>    8.4903    0.0000 </r>
       <r>    8.5000    0.0000 </r>
       <r>    8.5034    0.0000 </r>
       <r>    8.5052    0.0000 </r>
       <r>    8.5094    0.0000 </r>
       <r>    8.5195    0.0000 </r>
       <r>    8.5483    0.0000 </r>
      </set>
      <set comment="kpoint 2">
       <r>   -5.9931    1.0000 </r>
       <r>   -5.4688    1.0000 </r>
       <r>   -5.4632    1.0000 </r>
       <r>   -5.4627    1.0000 </r>
       <r>   -4.9696    1.0000 </r>
       <r>   -4.9638    1.0000 </r>
       <r>   -4.9630    1.0000 </r>
       <r>   -4.5311    1.0000 </r>
       <r>   -4.4363    1.0000 </r>
       <r>   -4.4308    1.0000 </r>
       <r>   -4.4293    1.0000 </r>
       <r>   -4.0259    1.0000 </r>
       <r>   -4.0222    1.0000 </r>
       <r>   -4.0159    1.0000 </r>
       <r>   -4.0158    1.0000 </r>
       <r>   -4.0114    1.0000 </r>
       <r>   -4.0102    1.0000 </r>
       <r>   -3.8314    1.0000 </r>
       <r>   -3.8220    1.0000 </r>
       <r>   -3.8216    1.0000 </r>
       <r>   -3.3318    1.0000 </r>
       <r>   -3.3264    1.0000 </r>
       <r>   -3.3216    1.0000 </r>
       <r>   -2.9665    1.0000 </r>
       <r>   -2.9564    1.0000 </r>
       <r>   -2.9556    1.0000 </r>
       <r>   -2.7996    1.0000 </r>
       <r>   -2.7960    1.0000 </r>
       <r>   -2.7904    1.0000 </r>
       <r>   -2.7902    1.0000 </r>
       <r>   -2.7858    1.0000 </r>
       <r>   -2.7849    1.0000 </r>
       <r>   -1.2601    1.0000 </r>
       <r>   -1.2482    1.0000 </r>
       <r>   -1.2481    1.0000 </r>
       <r>   -1.2481    1.0000 </r>
       <r>   -1.2442    1.0000 </r>
       <r>   -1.2413    1.0000 </r>
       <r>   -1.1574    1.0000 </r>
       <r>   -1.1476    1.0000 </r>
       <r>   -1.1463    1.0000 </r>
       <r>   -1.0374    1.0000 </r>
       <r>   -1.0311    1.0000 </r>
       <r>   -1.0245    1.0000 </r>
       <r>   -0.9576    1.0000 </r>
       <r>   -0.9498    1.0000 </r>
       <r>   -0.9447    1.0000 </r>
       <r>   -0.2481    1.0000 </r>
       <r>   -0.1717    1.0000 </r>
       <r>   -0.1603    1.0000 </r>
       <r>   -0.1597    1.0000 </r>
       <r>   -0.1575    1.0000 </r>
       <r>   -0.1516    1.0000 </r>
       <r>   -0.1513    1.0000 </r>
       <r>    0.7041    1.0000 </r>
       <r>    0.7144    1.0000 </r>
       <r>    0.7175    1.0000 </r>
       <r>    1.0415    1.0000 </r>
       <r>    1.0492    1.0000 </r>
       <r>    1.0506    1.0000 </r>
       <r>    1.6508    1.0000 </r>
       <r>    1.6562    1.0000 </r>
       <r>    1.6572    1.0000 </r>
       <r>    1.6576    1.0000 </r>
       <r>    1.6586    1.0000 </r>
       <r>    1.6621    1.0000 </r>
       <r>    1.7141    1.0000 </r>
       <r>    1.7182    1.0000 </r>
       <r>    1.7193    1.0000 </r>
       <r>    2.2624    1.0000 </r>
       <r>    2.2676    1.0000 </r>
       <r>    2.2676    1.0000 </r>
       <r>    2.3670    1.0000 </r>
       <r>    2.3680    1.0000 </r>
       <r>    2.3709    1.0000 </r>
       <r>    2.3727    1.0000 </r>
       <r>    2.3750    1.0000 </r>
       <r>    2.3791    1.0000 </r>
       <r>    2.4231    1.0000 </r>
       <r>    2.4269    1.0000 </r>
       <r>    2.4311    1.0000 </r>
       <r>    2.7262    1.0000 </r>
       <r>    2.7335    1.0000 </r>
       <r>    2.7350    1.0000 </r>
       <r>    2.7361    1.0000 </r>
       <r>    2.7371    1.0000 </r>
       <r>    2.7406    1.0000 </r>
       <r>    2.9979    1.0000 </r>
       <r>    3.0007    1.0000 </r>
       <r>    3.0022    1.0000 </r>
       <r>    3.0089    1.0000 </r>
       <r>    3.0174    1.0000 </r>
       <r>    3.0179    1.0000 </r>
       <r>    3.3553    1.0000 </r>
       <r>    3.3613    1.0000 </r>
       <r>    3.3635    1.0000 </r>
       <r>    3.3755    1.0000 </r>
       <r>    3.3837    1.0000 </r>
       <r>    3.3850    1.0000 </r>
       <r>    3.4643    1.0000 </r>
       <r>    3.4671    1.0000 </r>
       <r>    3.4719    1.0000 </r>
       <r>    3.7283    1.0000 </r>
       <r>    3.7359    1.0000 </r>
       <r>    3.7400    1.0000 </r>
       <r>    3.7414    1.0000 </r>
       <r>    3.7418    1.0000 </r>
       <r>    3.7445    1.0000 </r>
       <r>    3.7784    1.0000 </r>
       <r>    3.7811    1.0000 </r>
       <r>    3.7865    1.0000 </r>
       <r>    4.0366    1.0000 </r>
       <r>    4.0980    1.0000 </r>
       <r>    4.1001    1.0000 </r>
       <r>    4.1027    1.0000 </r>
       <r>    4.3388    1.0000 </r>
       <r>    4.3417    1.0000 </r>
       <r>    4.3479    1.0000 </r>
       <r>    4.3949    1.0000 </r>
       <r>    4.4040    1.0000 </r>
       <r>    4.4057    1.0000 </r>
       <r>    4.5593    1.0000 </r>
       <r>    4.5687    1.0000 </r>
       <r>    4.8681    1.0000 </r>
       <r>    4.8711    1.0000 </r>
       <r>    4.8789    1.0000 </r>
       <r>    5.3466    1.0000 </r>
       <r>    5.3574    1.0000 </r>
       <r>    6.5600    0.0000 </r>
       <r>    6.5670    0.0000 </r>
       <r>    6.5681    0.0000 </r>
       <r>    6.9994    0.0000 </r>
       <r>    7.0070    0.0000 </r>
       <r>    7.0090    0.0000 </r>
       <r>    7.2352    0.0000 </r>
       <r>    7.4869    0.0000 </r>
       <r>    7.4942    0.0000 </r>
       <r>    7.4957    0.0000 </r>
       <r>    7.6142    0.0000 </r>
       <r>    7.6159    0.0000 </r>
       <r>    7.6244    0.0000 </r>
       <r>    7.7774    0.0000 </r>
       <r>    7.7798    0.0000 </r>
       <r>    7.7844    0.0000 </r>
       <r>    7.7978    0.0000 </r>
       <r>    7.8027    0.0000 </r>
       <r>    7.8046    0.0000 </r>
       <r>    8.0188    0.0000 </r>
       <r>    8.0263    0.0000 </r>
       <r>    8.0282    0.0000 </r>
       <r>    8.0307    0.0000 </r>
       <r>    8.0320    0.0000 </r>
       <r>    8.0366    0.0000 </r>
       <r>    8.0837    0.0000 </r>
       <r>    8.2919    0.0000 </r>
       <r>    8.2961    0.0000 </r>
       <r>    8.2976    0.0000 </r>
       <r>    8.4902    0.0000 </r>
       <r>    8.4988    0.0000 </r>
       <r>    8.5021    0.0000 </r>
       <r>    8.5036    0.0000 </r>
       <r>    8.5111    0.0000 </r>
       <r>    8.5214    0.0000 </r>
       <r>    8.5378    0.0000 </r>
      </set>
      <set comment="kpoint 3">
       <r>   -5.9932    1.0000 </r>
       <r>   -5.4680    1.0000 </r>
       <r>   -5.4656    1.0000 </r>
       <r>   -5.4604    1.0000 </r>
       <r>   -4.9688    1.0000 </r>
       <r>   -4.9664    1.0000 </r>
       <r>   -4.9615    1.0000 </r>
       <r>   -4.5333    1.0000 </r>
       <r>   -4.4362    1.0000 </r>
       <r>   -4.4336    1.0000 </r>
       <r>   -4.4286    1.0000 </r>
       <r>   -4.0211    1.0000 </r>
       <r>   -4.0201    1.0000 </r>
       <r>   -4.0179    1.0000 </r>
       <r>   -4.0177    1.0000 </r>
       <r>   -4.0124    1.0000 </r>
       <r>   -4.0068    1.0000 </r>
       <r>   -3.8268    1.0000 </r>
       <r>   -3.8224    1.0000 </r>
       <r>   -3.8218    1.0000 </r>
       <r>   -3.3337    1.0000 </r>
       <r>   -3.3298    1.0000 </r>
       <r>   -3.3269    1.0000 </r>
       <r>   -2.9623    1.0000 </r>
       <r>   -2.9585    1.0000 </r>
       <r>   -2.9557    1.0000 </r>
       <r>   -2.7960    1.0000 </r>
       <r>   -2.7948    1.0000 </r>
       <r>   -2.7924    1.0000 </r>
       <r>   -2.7918    1.0000 </r>
       <r>   -2.7873    1.0000 </r>
       <r>   -2.7811    1.0000 </r>
       <r>   -1.2556    1.0000 </r>
       <r>   -1.2530    1.0000 </r>
       <r>   -1.2522    1.0000 </r>
       <r>   -1.2500    1.0000 </r>
       <r>   -1.2465    1.0000 </r>
       <r>   -1.2388    1.0000 </r>
       <r>   -1.1556    1.0000 </r>
       <r>   -1.1529    1.0000 </r>
       <r>   -1.1474    1.0000 </r>
       <r>   -1.0374    1.0000 </r>
       <r>   -1.0370    1.0000 </r>
       <r>   -1.0282    1.0000 </r>
       <r>   -0.9482    1.0000 </r>
       <r>   -0.9428    1.0000 </r>
       <r>   -0.9369    1.0000 </r>
       <r>   -0.2411    1.0000 </r>
       <r>   -0.1668    1.0000 </r>
       <r>   -0.1661    1.0000 </r>
       <r>   -0.1640    1.0000 </r>
       <r>   -0.1619    1.0000 </r>
       <r>   -0.1586    1.0000 </r>
       <r>   -0.1518    1.0000 </r>
       <r>    0.7123    1.0000 </r>
       <r>    0.7155    1.0000 </r>
       <r>    0.7219    1.0000 </r>
       <r>    1.0437    1.0000 </r>
       <r>    1.0454    1.0000 </r>
       <r>    1.0520    1.0000 </r>
       <r>    1.6509    1.0000 </r>
       <r>    1.6538    1.0000 </r>
       <r>    1.6569    1.0000 </r>
       <r>    1.6573    1.0000 </r>
       <r>    1.6602    1.0000 </r>
       <r>    1.6613    1.0000 </r>
       <r>    1.7133    1.0000 </r>
       <r>    1.7142    1.0000 </r>
       <r>    1.7179    1.0000 </r>
       <r>    2.2676    1.0000 </r>
       <r>    2.2689    1.0000 </r>
       <r>    2.2722    1.0000 </r>
       <r>    2.3627    1.0000 </r>
       <r>    2.3639    1.0000 </r>
       <r>    2.3706    1.0000 </r>
       <r>    2.3713    1.0000 </r>
       <r>    2.3733    1.0000 </r>
       <r>    2.3751    1.0000 </r>
       <r>    2.4201    1.0000 </r>
       <r>    2.4214    1.0000 </r>
       <r>    2.4279    1.0000 </r>
       <r>    2.7307    1.0000 </r>
       <r>    2.7322    1.0000 </r>
       <r>    2.7341    1.0000 </r>
       <r>    2.7356    1.0000 </r>
       <r>    2.7358    1.0000 </r>
       <r>    2.7422    1.0000 </r>
       <r>    2.9953    1.0000 </r>
       <r>    2.9994    1.0000 </r>
       <r>    2.9996    1.0000 </r>
       <r>    3.0097    1.0000 </r>
       <r>    3.0103    1.0000 </r>
       <r>    3.0170    1.0000 </r>
       <r>    3.3614    1.0000 </r>
       <r>    3.3620    1.0000 </r>
       <r>    3.3669    1.0000 </r>
       <r>    3.3851    1.0000 </r>
       <r>    3.3879    1.0000 </r>
       <r>    3.3903    1.0000 </r>
       <r>    3.4624    1.0000 </r>
       <r>    3.4653    1.0000 </r>
       <r>    3.4688    1.0000 </r>
       <r>    3.7391    1.0000 </r>
       <r>    3.7401    1.0000 </r>
       <r>    3.7420    1.0000 </r>
       <r>    3.7435    1.0000 </r>
       <r>    3.7471    1.0000 </r>
       <r>    3.7511    1.0000 </r>
       <r>    3.7759    1.0000 </r>
       <r>    3.7792    1.0000 </r>
       <r>    3.7836    1.0000 </r>
       <r>    4.0443    1.0000 </r>
       <r>    4.0920    1.0000 </r>
       <r>    4.0971    1.0000 </r>
       <r>    4.0981    1.0000 </r>
       <r>    4.3359    1.0000 </r>
       <r>    4.3392    1.0000 </r>
       <r>    4.3421    1.0000 </r>
       <r>    4.4060    1.0000 </r>
       <r>    4.4103    1.0000 </r>
       <r>    4.4152    1.0000 </r>
       <r>    4.5570    1.0000 </r>
       <r>    4.5666    1.0000 </r>
       <r>    4.8632    1.0000 </r>
       <r>    4.8675    1.0000 </r>
       <r>    4.8718    1.0000 </r>
       <r>    5.3423    1.0000 </r>
       <r>    5.3527    1.0000 </r>
       <r>    6.5589    0.0000 </r>
       <r>    6.5631    0.0000 </r>
       <r>    6.5632    0.0000 </r>
       <r>    6.9986    0.0000 </r>
       <r>    7.0043    0.0000 </r>
       <r>    7.0082    0.0000 </r>
       <r>    7.2323    0.0000 </r>
       <r>    7.4841    0.0000 </r>
       <r>    7.4898    0.0000 </r>
       <r>    7.4935    0.0000 </r>
       <r>    7.6186    0.0000 </r>
       <r>    7.6196    0.0000 </r>
       <r>    7.6245    0.0000 </r>
       <r>    7.7743    0.0000 </r>
       <r>    7.7812    0.0000 </r>
       <r>    7.7817    0.0000 </r>
       <r>    7.7981    0.0000 </r>
       <r>    7.8020    0.0000 </r>
       <r>    7.8024    0.0000 </r>
       <r>    8.0261    0.0000 </r>
       <r>    8.0286    0.0000 </r>
       <r>    8.0313    0.0000 </r>
       <r>    8.0326    0.0000 </r>
       <r>    8.0350    0.0000 </r>
       <r>    8.0399    0.0000 </r>
       <r>    8.0792    0.0000 </r>
       <r>    8.2909    0.0000 </r>
       <r>    8.2958    0.0000 </r>
       <r>    8.2976    0.0000 </r>
       <r>    8.4958    0.0000 </r>
       <r>    8.4984    0.0000 </r>
       <r>    8.5020    0.0000 </r>
       <r>    8.5036    0.0000 </r>
       <r>    8.5114    0.0000 </r>
       <r>    8.5170    0.0000 </r>
       <r>    8.5418    0.0000 </r>
      </set>
     </set>
    </set>
   </array>
  </eigenvalues>
  <separator name="orbital magnetization" >
   <v name="MAGDIPOLOUT">      0.00000000      0.00000000      0.00000000</v>
  </separator>
  <dos>
   <i name="efermi">      5.59966489 </i>
   <total>
    <array>
     <dimension dim="1">gridpoints</dimension>
     <dimension dim="2">spin</dimension>
     <field>energy</field>
     <field>total</field>
     <field>integrated</field>
     <set>
      <set comment="spin 1">
       <r>    -6.7203     0.0000     0.0000 </r>
       <r>    -6.6670     0.0000     0.0000 </r>
       <r>    -6.6137     0.0000     0.0000 </r>
       <r>    -6.5603     0.0000     0.0000 </r>
       <r>    -6.5070     0.0000     0.0000 </r>
       <r>    -6.4537     0.0000     0.0000 </r>
       <r>    -6.4004     0.0000     0.0000 </r>
       <r>    -6.3471     0.0000     0.0000 </r>
       <r>    -6.2938     0.0000     0.0000 </r>
       <r>    -6.2404     0.0000     0.0000 </r>
       <r>    -6.1871     0.0000     0.0000 </r>
       <r>    -6.1338     0.0013     0.0001 </r>
       <r>    -6.0805     0.2524     0.0135 </r>
       <r>    -6.0272     6.0536     0.3363 </r>
       <r>    -5.9738    20.2373     1.4153 </r>
       <r>    -5.9205    10.2171     1.9601 </r>
       <r>    -5.8672     0.7417     1.9996 </r>
       <r>    -5.8139     0.0069     2.0000 </r>
       <r>    -5.7606     0.0000     2.0000 </r>
       <r>    -5.7072     0.0000     2.0000 </r>
       <r>    -5.6539     0.0000     2.0000 </r>
       <r>    -5.6006     0.0073     2.0004 </r>
       <r>    -5.5473     1.1250     2.0604 </r>
       <r>    -5.4940    21.9843     3.2325 </r>
       <r>    -5.4407    61.4521     6.5091 </r>
       <r>    -5.3873    26.3203     7.9125 </r>
       <r>    -5.3340     1.6288     7.9993 </r>
       <r>    -5.2807     0.0130     8.0000 </r>
       <r>    -5.2274     0.0000     8.0000 </r>
       <r>    -5.1741     0.0000     8.0000 </r>
       <r>    -5.1207     0.0007     8.0000 </r>
       <r>    -5.0674     0.2301     8.0123 </r>
       <r>    -5.0141     9.4020     8.5136 </r>
       <r>    -4.9608    52.6101    11.3187 </r>
       <r>    -4.9075    44.5525    13.6942 </r>
       <r>    -4.8541     5.6395    13.9949 </r>
       <r>    -4.8008     0.0956    14.0000 </r>
       <r>    -4.7475     0.0002    14.0000 </r>
       <r>    -4.6942     0.0001    14.0000 </r>
       <r>    -4.6409     0.0400    14.0021 </r>
       <r>    -4.5876     2.1742    14.1181 </r>
       <r>    -4.5342    15.9420    14.9681 </r>
       <r>    -4.4809    26.2972    16.3702 </r>
       <r>    -4.4276    55.3652    19.3222 </r>
       <r>    -4.3743    44.5122    21.6955 </r>
       <r>    -4.3210     5.6147    21.9949 </r>
       <r>    -4.2676     0.0951    22.0000 </r>
       <r>    -4.2143     0.0002    22.0000 </r>
       <r>    -4.1610     0.0059    22.0003 </r>
       <r>    -4.1077     1.1934    22.0639 </r>
       <r>    -4.0544    31.2699    23.7312 </r>
       <r>    -4.0010   117.6047    30.0018 </r>
       <r>    -3.9477    68.8966    33.6752 </r>
       <r>    -3.8944     8.7518    34.1419 </r>
       <r>    -3.8411    33.1665    35.9103 </r>
       <r>    -3.7878    59.6203    39.0892 </r>
       <r>    -3.7345    16.4421    39.9658 </r>
       <r>    -3.6811     0.6379    39.9998 </r>
       <r>    -3.6278     0.0031    40.0000 </r>
       <r>    -3.5745     0.0000    40.0000 </r>
       <r>    -3.5212     0.0000    40.0000 </r>
       <r>    -3.4679     0.0049    40.0003 </r>
       <r>    -3.4145     0.8595    40.0461 </r>
       <r>    -3.3612    19.1321    41.0662 </r>
       <r>    -3.3079    60.7280    44.3041 </r>
       <r>    -3.2546    29.6633    45.8857 </r>
       <r>    -3.2013     2.1230    45.9989 </r>
       <r>    -3.1479     0.0199    46.0000 </r>
       <r>    -3.0946     0.0078    46.0004 </r>
       <r>    -3.0413     1.1649    46.0625 </r>
       <r>    -2.9880    22.3180    47.2525 </r>
       <r>    -2.9347    61.4581    50.5294 </r>
       <r>    -2.8814    27.2509    51.9823 </r>
       <r>    -2.8280    33.8229    53.7857 </r>
       <r>    -2.7747   118.2134    60.0887 </r>
       <r>    -2.7214    67.5136    63.6885 </r>
       <r>    -2.6681     5.7763    63.9965 </r>
       <r>    -2.6148     0.0662    64.0000 </r>
       <r>    -2.5614     0.0001    64.0000 </r>
       <r>    -2.5081     0.0000    64.0000 </r>
       <r>    -2.4548     0.0000    64.0000 </r>
       <r>    -2.4015     0.0000    64.0000 </r>
       <r>    -2.3482     0.0000    64.0000 </r>
       <r>    -2.2948     0.0000    64.0000 </r>
       <r>    -2.2415     0.0000    64.0000 </r>
       <r>    -2.1882     0.0000    64.0000 </r>
       <r>    -2.1349     0.0000    64.0000 </r>
       <r>    -2.0816     0.0000    64.0000 </r>
       <r>    -2.0283     0.0000    64.0000 </r>
       <r>    -1.9749     0.0000    64.0000 </r>
       <r>    -1.9216     0.0000    64.0000 </r>
       <r>    -1.8683     0.0000    64.0000 </r>
       <r>    -1.8150     0.0000    64.0000 </r>
       <r>    -1.7617     0.0000    64.0000 </r>
       <r>    -1.7083     0.0000    64.0000 </r>
       <r>    -1.6550     0.0000    64.0000 </r>
       <r>    -1.6017     0.0000    64.0000 </r>
       <r>    -1.5484     0.0000    64.0000 </r>
       <r>    -1.4951     0.0000    64.0000 </r>
       <r>    -1.4417     0.0000    64.0000 </r>
       <r>    -1.3884     0.0110    64.0006 </r>
       <r>    -1.3351     1.7960    64.0963 </r>
       <r>    -1.2818    38.4719    66.1476 </r>
       <r>    -1.2285   122.3796    72.6728 </r>
       <r>    -1.1752    86.0766    77.2623 </r>
       <r>    -1.1218    66.4845    80.8071 </r>
       <r>    -1.0685    38.9715    82.8850 </r>
       <r>    -1.0152    63.8861    86.2914 </r>
       <r>    -0.9619    67.1873    89.8737 </r>
       <r>    -0.9086    61.1337    93.1333 </r>
       <r>    -0.8552    15.6443    93.9674 </r>
       <r>    -0.8019     0.6080    93.9998 </r>
       <r>    -0.7486     0.0031    94.0000 </r>
       <r>    -0.6953     0.0000    94.0000 </r>
       <r>    -0.6420     0.0000    94.0000 </r>
       <r>    -0.5886     0.0000    94.0000 </r>
       <r>    -0.5353     0.0000    94.0000 </r>
       <r>    -0.4820     0.0000    94.0000 </r>
       <r>    -0.4287     0.0000    94.0000 </r>
       <r>    -0.3754     0.0044    94.0002 </r>
       <r>    -0.3221     0.5458    94.0293 </r>
       <r>    -0.2687     9.0487    94.5118 </r>
       <r>    -0.2154    34.0053    96.3249 </r>
       <r>    -0.1621   101.0814   101.7145 </r>
       <r>    -0.1088   100.7889   107.0884 </r>
       <r>    -0.0555    16.7056   107.9791 </r>
       <r>    -0.0021     0.3905   107.9999 </r>
       <r>     0.0512     0.0012   108.0000 </r>
       <r>     0.1045     0.0000   108.0000 </r>
       <r>     0.1578     0.0000   108.0000 </r>
       <r>     0.2111     0.0000   108.0000 </r>
       <r>     0.2645     0.0000   108.0000 </r>
       <r>     0.3178     0.0000   108.0000 </r>
       <r>     0.3711     0.0000   108.0000 </r>
       <r>     0.4244     0.0000   108.0000 </r>
       <r>     0.4777     0.0000   108.0000 </r>
       <r>     0.5310     0.0000   108.0000 </r>
       <r>     0.5844     0.0160   108.0009 </r>
       <r>     0.6377     1.8020   108.0969 </r>
       <r>     0.6910    27.1663   109.5454 </r>
       <r>     0.7443    60.9949   112.7976 </r>
       <r>     0.7976    21.4452   113.9410 </r>
       <r>     0.8510     1.0991   113.9996 </r>
       <r>     0.9043     0.0106   114.0002 </r>
       <r>     0.9576     0.6633   114.0355 </r>
       <r>     1.0109    16.7303   114.9276 </r>
       <r>     1.0642    59.7286   118.1122 </r>
       <r>     1.1176    32.7376   119.8578 </r>
       <r>     1.1709     2.6397   119.9985 </r>
       <r>     1.2242     0.0279   120.0000 </r>
       <r>     1.2775     0.0000   120.0000 </r>
       <r>     1.3308     0.0000   120.0000 </r>
       <r>     1.3841     0.0000   120.0000 </r>
       <r>     1.4375     0.0000   120.0000 </r>
       <r>     1.4908     0.0003   120.0000 </r>
       <r>     1.5441     0.1692   120.0090 </r>
       <r>     1.5974    10.4828   120.5680 </r>
       <r>     1.6507    90.0605   125.3699 </r>
       <r>     1.7041   144.7806   133.0894 </r>
       <r>     1.7574    77.7782   137.2365 </r>
       <r>     1.8107    13.8884   137.9770 </r>
       <r>     1.8640     0.4303   137.9999 </r>
       <r>     1.9173     0.0017   138.0000 </r>
       <r>     1.9707     0.0000   138.0000 </r>
       <r>     2.0240     0.0000   138.0000 </r>
       <r>     2.0773     0.0000   138.0000 </r>
       <r>     2.1306     0.0062   138.0003 </r>
       <r>     2.1839     1.0147   138.0544 </r>
       <r>     2.2372    20.9533   139.1716 </r>
       <r>     2.2906    64.0938   142.5890 </r>
       <r>     2.3439    76.7042   146.6788 </r>
       <r>     2.3972   147.5844   154.5478 </r>
       <r>     2.4505   110.1224   160.4194 </r>
       <r>     2.5038    28.0970   161.9175 </r>
       <r>     2.5572     1.5351   161.9994 </r>
       <r>     2.6105     0.0650   162.0028 </r>
       <r>     2.6638     5.0931   162.2744 </r>
       <r>     2.7171    64.2650   165.7009 </r>
       <r>     2.7704   119.8005   172.0885 </r>
       <r>     2.8238    34.4337   173.9245 </r>
       <r>     2.8771     1.4474   174.0017 </r>
       <r>     2.9304     3.9935   174.2146 </r>
       <r>     2.9837    55.8219   177.1910 </r>
       <r>     3.0370   120.4930   183.6155 </r>
       <r>     3.0903    42.4175   185.8772 </r>
       <r>     3.1437     2.2870   185.9991 </r>
       <r>     3.1970     0.0170   186.0000 </r>
       <r>     3.2503     0.1057   186.0056 </r>
       <r>     3.3036     6.9323   186.3753 </r>
       <r>     3.3569    67.9256   189.9970 </r>
       <r>     3.4103   120.2169   196.4068 </r>
       <r>     3.4636    80.6050   200.7046 </r>
       <r>     3.5169    53.0014   203.5305 </r>
       <r>     3.5702     8.6086   203.9895 </r>
       <r>     3.6235     0.3099   204.0060 </r>
       <r>     3.6769     8.1676   204.4415 </r>
       <r>     3.7302    85.5512   209.0030 </r>
       <r>     3.7835   164.2233   217.7592 </r>
       <r>     3.8368    72.2434   221.6111 </r>
       <r>     3.8901     7.1733   221.9936 </r>
       <r>     3.9435     0.2402   222.0064 </r>
       <r>     3.9968     4.2417   222.2326 </r>
       <r>     4.0501    28.3858   223.7461 </r>
       <r>     4.1034    66.4030   227.2866 </r>
       <r>     4.1567    45.3422   229.7042 </r>
       <r>     4.2100     5.4705   229.9959 </r>
       <r>     4.2634     1.7136   230.0872 </r>
       <r>     4.3167    26.9308   231.5231 </r>
       <r>     4.3700    78.4719   235.7072 </r>
       <r>     4.4233    81.4798   240.0516 </r>
       <r>     4.4766    34.3757   241.8844 </r>
       <r>     4.5300    15.4950   242.7106 </r>
       <r>     4.5833    40.3880   244.8641 </r>
       <r>     4.6366    19.8451   245.9222 </r>
       <r>     4.6899     1.4458   245.9993 </r>
       <r>     4.7432     0.0348   246.0011 </r>
       <r>     4.7966     2.1795   246.1173 </r>
       <r>     4.8499    29.8991   247.7115 </r>
       <r>     4.9032    60.5450   250.9397 </r>
       <r>     4.9565    19.0198   251.9538 </r>
       <r>     5.0098     0.8614   251.9997 </r>
       <r>     5.0631     0.0050   252.0000 </r>
       <r>     5.1165     0.0000   252.0000 </r>
       <r>     5.1698     0.0000   252.0000 </r>
       <r>     5.2231     0.0151   252.0008 </r>
       <r>     5.2764     1.5076   252.0812 </r>
       <r>     5.3297    20.0928   253.1525 </r>
       <r>     5.3831    40.1774   255.2947 </r>
       <r>     5.4364    12.6425   255.9688 </r>
       <r>     5.4897     0.5815   255.9998 </r>
       <r>     5.5430     0.0035   256.0000 </r>
       <r>     5.5963     0.0000   256.0000 </r>
       <r>     5.6497     0.0000   256.0000 </r>
       <r>     5.7030     0.0000   256.0000 </r>
       <r>     5.7563     0.0000   256.0000 </r>
       <r>     5.8096     0.0000   256.0000 </r>
       <r>     5.8629     0.0000   256.0000 </r>
       <r>     5.9162     0.0000   256.0000 </r>
       <r>     5.9696     0.0000   256.0000 </r>
       <r>     6.0229     0.0000   256.0000 </r>
       <r>     6.0762     0.0000   256.0000 </r>
       <r>     6.1295     0.0000   256.0000 </r>
       <r>     6.1828     0.0000   256.0000 </r>
       <r>     6.2362     0.0000   256.0000 </r>
       <r>     6.2895     0.0000   256.0000 </r>
       <r>     6.3428     0.0000   256.0000 </r>
       <r>     6.3961     0.0001   256.0000 </r>
       <r>     6.4494     0.0749   256.0040 </r>
       <r>     6.5028     4.8659   256.2634 </r>
       <r>     6.5561    42.1575   258.5112 </r>
       <r>     6.6094    54.4560   261.4148 </r>
       <r>     6.6627    10.6861   261.9845 </r>
       <r>     6.7160     0.2892   261.9999 </r>
       <r>     6.7693     0.0010   262.0000 </r>
       <r>     6.8227     0.0000   262.0000 </r>
       <r>     6.8760     0.0174   262.0009 </r>
       <r>     6.9293     1.9444   262.1046 </r>
       <r>     6.9826    28.4359   263.6208 </r>
       <r>     7.0359    60.9772   266.8720 </r>
       <r>     7.0893    20.1917   267.9486 </r>
       <r>     7.1426     1.1457   268.0097 </r>
       <r>     7.1959     5.1631   268.2850 </r>
       <r>     7.2492    19.7556   269.3383 </r>
       <r>     7.3025    11.4375   269.9482 </r>
       <r>     7.3559     0.9705   269.9999 </r>
       <r>     7.4092     1.2416   270.0661 </r>
       <r>     7.4625    22.8386   271.2838 </r>
       <r>     7.5158    61.5813   274.5673 </r>
       <r>     7.5691    34.1162   276.3863 </r>
       <r>     7.6224    52.7205   279.1973 </r>
       <r>     7.6758    46.3939   281.6710 </r>
       <r>     7.7291    17.0592   282.5805 </r>
       <r>     7.7824    82.1698   286.9617 </r>
       <r>     7.8357   106.8535   292.6590 </r>
       <r>     7.8890    24.2874   293.9540 </r>
       <r>     7.9424     2.3998   294.0819 </r>
       <r>     7.9957    35.8839   295.9952 </r>
       <r>     8.0490   126.3528   302.7322 </r>
       <r>     8.1023    83.3779   307.1778 </r>
       <r>     8.1556    14.6931   307.9612 </r>
       <r>     8.2090     1.5787   308.0454 </r>
       <r>     8.2623    19.1789   309.0680 </r>
       <r>     8.3156    60.9065   312.3155 </r>
       <r>     8.3689    29.5248   313.8897 </r>
       <r>     8.4222     4.6696   314.1387 </r>
       <r>     8.4755    46.2036   316.6022 </r>
       <r>     8.5289   132.6572   323.6753 </r>
       <r>     8.5822    72.4595   327.5388 </r>
       <r>     8.6355     8.4484   327.9892 </r>
       <r>     8.6888     0.2013   328.0000 </r>
       <r>     8.7421     0.0008   328.0000 </r>
       <r>     8.7955     0.0000   328.0000 </r>
       <r>     8.8488     0.0000   328.0000 </r>
       <r>     8.9021     0.0000   328.0000 </r>
       <r>     8.9554     0.0000   328.0000 </r>
       <r>     9.0087     0.0000   328.0000 </r>
       <r>     9.0621     0.0000   328.0000 </r>
       <r>     9.1154     0.0000   328.0000 </r>
       <r>     9.1687     0.0000   328.0000 </r>
       <r>     9.2220     0.0000   328.0000 </r>
       <r>     9.2753     0.0000   328.0000 </r>
      </set>
     </set>
    </array>
   </total>
  </dos>
 </calculation>
 <structure name="finalpos" >
  <crystal>
   <varray name="basis" >
    <v>      10.93252578       0.00000000       0.00000000 </v>
    <v>       0.00000000      10.93252578       0.00000000 </v>
    <v>       0.00000000       0.00000000      10.93252578 </v>
   </varray>
   <i name="volume">   1306.65679237 </i>
   <varray name="rec_basis" >
    <v>       0.09147017       0.00000000       0.00000000 </v>
    <v>       0.00000000       0.09147017       0.00000000 </v>
    <v>       0.00000000       0.00000000       0.09147017 </v>
   </varray>
  </crystal>
  <varray name="positions" >
   <v>       0.44024411       0.43750000       0.43750000 </v>
   <v>       0.93750000       0.43750000       0.43750000 </v>
   <v>       0.43750000       0.93750000       0.43750000 </v>
   <v>       0.93750000       0.93750000       0.43750000 </v>
   <v>       0.43750000       0.43750000       0.93750000 </v>
   <v>       0.93750000       0.43750000       0.93750000 </v>
   <v>       0.43750000       0.93750000       0.93750000 </v>
   <v>       0.93750000       0.93750000       0.93750000 </v>
   <v>       0.43750000       0.18750000       0.18750000 </v>
   <v>       0.93750000       0.18750000       0.18750000 </v>
   <v>       0.43750000       0.68750000       0.18750000 </v>
   <v>       0.93750000       0.68750000       0.18750000 </v>
   <v>       0.43750000       0.18750000       0.68750000 </v>
   <v>       0.93750000       0.18750000       0.68750000 </v>
   <v>       0.43750000       0.68750000       0.68750000 </v>
   <v>       0.93750000       0.68750000       0.68750000 </v>
   <v>       0.18750000       0.43750000       0.18750000 </v>
   <v>       0.68750000       0.43750000       0.18750000 </v>
   <v>       0.18750000       0.93750000       0.18750000 </v>
   <v>       0.68750000       0.93750000       0.18750000 </v>
   <v>       0.18750000       0.43750000       0.68750000 </v>
   <v>       0.68750000       0.43750000       0.68750000 </v>
   <v>       0.18750000       0.93750000       0.68750000 </v>
   <v>       0.68750000       0.93750000       0.68750000 </v>
   <v>       0.18750000       0.18750000       0.43750000 </v>
   <v>       0.68750000       0.18750000       0.43750000 </v>
   <v>       0.18750000       0.68750000       0.43750000 </v>
   <v>       0.68750000       0.68750000       0.43750000 </v>
   <v>       0.18750000       0.18750000       0.93750000 </v>
   <v>       0.68750000       0.18750000       0.93750000 </v>
   <v>       0.18750000       0.68750000       0.93750000 </v>
   <v>       0.68750000       0.68750000       0.93750000 </v>
   <v>       0.06250000       0.06250000       0.06250000 </v>
   <v>       0.55975589       0.06250000       0.06250000 </v>
   <v>       0.06250000       0.56250000       0.06250000 </v>
   <v>       0.56250000       0.56250000       0.06250000 </v>
   <v>       0.06250000       0.06250000       0.56250000 </v>
   <v>       0.56250000       0.06250000       0.56250000 </v>
   <v>       0.06250000       0.56250000       0.56250000 </v>
   <v>       0.56250000       0.56250000       0.56250000 </v>
   <v>       0.06250000       0.31250000       0.31250000 </v>
   <v>       0.56250000       0.31250000       0.31250000 </v>
   <v>       0.06250000       0.81250000       0.31250000 </v>
   <v>       0.56250000       0.81250000       0.31250000 </v>
   <v>       0.06250000       0.31250000       0.81250000 </v>
   <v>       0.56250000       0.31250000       0.81250000 </v>
   <v>       0.06250000       0.81250000       0.81250000 </v>
   <v>       0.56250000       0.81250000       0.81250000 </v>
   <v>       0.31250000       0.06250000       0.31250000 </v>
   <v>       0.81250000       0.06250000       0.31250000 </v>
   <v>       0.31250000       0.56250000       0.31250000 </v>
   <v>       0.81250000       0.56250000       0.31250000 </v>
   <v>       0.31250000       0.06250000       0.81250000 </v>
   <v>       0.81250000       0.06250000       0.81250000 </v>
   <v>       0.31250000       0.56250000       0.81250000 </v>
   <v>       0.81250000       0.56250000       0.81250000 </v>
   <v>       0.31250000       0.31250000       0.06250000 </v>
   <v>       0.81250000       0.31250000       0.06250000 </v>
   <v>       0.31250000       0.81250000       0.06250000 </v>
   <v>       0.81250000       0.81250000       0.06250000 </v>
   <v>       0.31250000       0.31250000       0.56250000 </v>
   <v>       0.81250000       0.31250000       0.56250000 </v>
   <v>       0.31250000       0.81250000       0.56250000 </v>
   <v>       0.81250000       0.81250000       0.56250000 </v>
  </varray>
 </structure>
</modeling>
