<?xml version="1.0" encoding="ISO-8859-1"?>
<modeling>
 <generator>
  <i name="program" type="string">vasp </i>
  <i name="version" type="string">5.4.1  </i>
  <i name="subversion" type="string">05Feb16 (build Mar 26 2016 11:58:25) complex                          parallel </i>
  <i name="platform" type="string">IFC91_ompi </i>
  <i name="date" type="string">2017 03 12 </i>
  <i name="time" type="string">12:19:11 </i>
 </generator>
 <incar>
  <i type="string" name="PREC">accurate</i>
  <i type="int" name="IALGO">    38</i>
  <i type="logical" name="ADDGRID"> T  </i>
  <i type="int" name="NELMIN">     5</i>
  <i type="int" name="IBRION">    -1</i>
  <i name="EDIFF">      0.00000001</i>
  <i name="ENCUT">    300.00000000</i>
  <i type="logical" name="LREAL"> F  </i>
  <i type="int" name="ISMEAR">     0</i>
  <i name="SIGMA">      0.05000000</i>
  <i type="logical" name="LWAVE"> F  </i>
  <i type="logical" name="LCHARG"> F  </i>
  <v type="int" name="KPOINT_BSE">    -1     0     0     0</v>
 </incar>
 <kpoints>
  <generation param="Monkhorst-Pack">
   <v type="int" name="divisions">       2        2        2 </v>
   <v name="usershift">      0.00000000       0.00000000       0.00000000 </v>
   <v name="genvec1">      0.50000000       0.00000000       0.00000000 </v>
   <v name="genvec2">      0.00000000       0.50000000       0.00000000 </v>
   <v name="genvec3">      0.00000000       0.00000000       0.50000000 </v>
   <v name="shift">      0.50000000       0.50000000       0.50000000 </v>
  </generation>
  <varray name="kpointlist" >
   <v>       0.25000000       0.25000000       0.25000000 </v>
   <v>      -0.25000000       0.25000000       0.25000000 </v>
   <v>       0.25000000      -0.25000000       0.25000000 </v>
   <v>      -0.25000000      -0.25000000       0.25000000 </v>
  </varray>
  <varray name="weights" >
   <v>       0.25000000 </v>
   <v>       0.25000000 </v>
   <v>       0.25000000 </v>
   <v>       0.25000000 </v>
  </varray>
 </kpoints>
 <parameters>
  <separator name="general" >
   <i type="string" name="SYSTEM">unknown system</i>
   <i type="logical" name="LCOMPAT"> F  </i>
  </separator>
  <separator name="electronic" >
   <i type="string" name="PREC">accura</i>
   <i name="ENMAX">    300.00000000</i>
   <i name="ENAUG">    322.06900000</i>
   <i name="EDIFF">      0.00000001</i>
   <i type="int" name="IALGO">    38</i>
   <i type="int" name="IWAVPR">    10</i>
   <i type="int" name="NBANDS">   164</i>
   <i name="NELECT">    256.00000000</i>
   <i type="int" name="TURBO">     0</i>
   <i type="int" name="IRESTART">     0</i>
   <i type="int" name="NREBOOT">     0</i>
   <i type="int" name="NMIN">     0</i>
   <i name="EREF">      0.00000000</i>
   <separator name="electronic smearing" >
    <i type="int" name="ISMEAR">     0</i>
    <i name="SIGMA">      0.05000000</i>
    <i name="KSPACING">      0.50000000</i>
    <i type="logical" name="KGAMMA"> T  </i>
   </separator>
   <separator name="electronic projectors" >
    <i type="logical" name="LREAL"> F  </i>
    <v name="ROPT">      0.00000000</v>
    <i type="int" name="LMAXPAW">  -100</i>
    <i type="int" name="LMAXMIX">     2</i>
    <i type="logical" name="NLSPLINE"> F  </i>
   </separator>
   <separator name="electronic startup" >
    <i type="int" name="ISTART">     0</i>
    <i type="int" name="ICHARG">     2</i>
    <i type="int" name="INIWAV">     1</i>
   </separator>
   <separator name="electronic spin" >
    <i type="int" name="ISPIN">     1</i>
    <i type="logical" name="LNONCOLLINEAR"> F  </i>
    <v name="MAGMOM">      1.00000000      1.00000000      1.00000000      1.00000000      1.00000000      1.00000000      1.00000000      1.00000000      1.00000000      1.00000000      1.00000000      1.00000000      1.00000000      1.00000000      1.00000000      1.00000000      1.00000000      1.00000000      1.00000000      1.00000000
      1.00000000      1.00000000      1.00000000      1.00000000      1.00000000      1.00000000      1.00000000      1.00000000      1.00000000      1.00000000      1.00000000      1.00000000      1.00000000      1.00000000      1.00000000      1.00000000      1.00000000      1.00000000      1.00000000      1.00000000
      1.00000000      1.00000000      1.00000000      1.00000000      1.00000000      1.00000000      1.00000000      1.00000000      1.00000000      1.00000000      1.00000000      1.00000000      1.00000000      1.00000000      1.00000000      1.00000000      1.00000000      1.00000000      1.00000000      1.00000000
      1.00000000      1.00000000      1.00000000      1.00000000</v>
    <i name="NUPDOWN">     -1.00000000</i>
    <i type="logical" name="LSORBIT"> F  </i>
    <v name="SAXIS">      0.00000000      0.00000000      1.00000000</v>
    <i type="logical" name="LSPIRAL"> F  </i>
    <v name="QSPIRAL">      0.00000000      0.00000000      0.00000000</v>
    <i type="logical" name="LZEROZ"> F  </i>
   </separator>
   <separator name="electronic exchange-correlation" >
    <i type="logical" name="LASPH"> F  </i>
    <i type="logical" name="LMETAGGA"> F  </i>
   </separator>
   <separator name="electronic convergence" >
    <i type="int" name="NELM">    60</i>
    <i type="int" name="NELMDL">    -5</i>
    <i type="int" name="NELMIN">     5</i>
    <i name="ENINI">    300.00000000</i>
    <separator name="electronic convergence detail" >
     <i type="logical" name="LDIAG"> T  </i>
     <i type="logical" name="LSUBROT"> F  </i>
     <i name="WEIMIN">      0.00000000</i>
     <i name="EBREAK">      0.00000000</i>
     <i name="DEPER">      0.30000000</i>
     <i type="int" name="NRMM">     4</i>
     <i name="TIME">      0.40000000</i>
    </separator>
   </separator>
   <separator name="electronic mixer" >
    <i name="AMIX">      0.40000000</i>
    <i name="BMIX">      1.00000000</i>
    <i name="AMIN">      0.10000000</i>
    <i name="AMIX_MAG">      1.60000000</i>
    <i name="BMIX_MAG">      1.00000000</i>
    <separator name="electronic mixer details" >
     <i type="int" name="IMIX">     4</i>
     <i type="logical" name="MIXFIRST"> F  </i>
     <i type="int" name="MAXMIX">   -45</i>
     <i name="WC">    100.00000000</i>
     <i type="int" name="INIMIX">     1</i>
     <i type="int" name="MIXPRE">     1</i>
     <i type="int" name="MREMOVE">     5</i>
    </separator>
   </separator>
   <separator name="electronic dipolcorrection" >
    <i type="logical" name="LDIPOL"> F  </i>
    <i type="logical" name="LMONO"> F  </i>
    <i type="int" name="IDIPOL">     0</i>
    <i name="EPSILON">      1.00000000</i>
    <v name="DIPOL">   -100.00000000   -100.00000000   -100.00000000</v>
    <i name="EFIELD">      0.00000000</i>
   </separator>
  </separator>
  <separator name="grids" >
   <i type="int" name="NGX">    64</i>
   <i type="int" name="NGY">    64</i>
   <i type="int" name="NGZ">    64</i>
   <i type="int" name="NGXF">   128</i>
   <i type="int" name="NGYF">   128</i>
   <i type="int" name="NGZF">   128</i>
   <i type="logical" name="ADDGRID"> T  </i>
  </separator>
  <separator name="ionic" >
   <i type="int" name="NSW">     0</i>
   <i type="int" name="IBRION">    -1</i>
   <i type="int" name="ISIF">     2</i>
   <i name="PSTRESS">      0.00000000</i>
   <i name="EDIFFG">      0.00000010</i>
   <i type="int" name="NFREE">     0</i>
   <i name="POTIM">      0.50000000</i>
   <i name="SMASS">     -3.00000000</i>
   <i name="SCALEE">      1.00000000</i>
  </separator>
  <separator name="ionic md" >
   <i name="TEBEG">      0.00010000</i>
   <i name="TEEND">      0.00010000</i>
   <i type="int" name="NBLOCK">     1</i>
   <i type="int" name="KBLOCK">     1</i>
   <i type="int" name="NPACO">   256</i>
   <i name="APACO">     16.00000000</i>
  </separator>
  <separator name="symmetry" >
   <i type="int" name="ISYM">     2</i>
   <i name="SYMPREC">      0.00001000</i>
  </separator>
  <separator name="dos" >
   <i type="logical" name="LORBIT"> F  </i>
   <v name="RWIGS">     -1.00000000</v>
   <i type="int" name="NEDOS">   301</i>
   <i name="EMIN">     10.00000000</i>
   <i name="EMAX">    -10.00000000</i>
   <i name="EFERMI">      0.00000000</i>
  </separator>
  <separator name="writing" >
   <i type="int" name="NWRITE">     2</i>
   <i type="logical" name="LWAVE"> F  </i>
   <i type="logical" name="LCHARG"> F  </i>
   <i type="logical" name="LPARD"> F  </i>
   <i type="logical" name="LVTOT"> F  </i>
   <i type="logical" name="LVHAR"> F  </i>
   <i type="logical" name="LELF"> F  </i>
   <i type="logical" name="LOPTICS"> F  </i>
   <v name="STM">      0.00000000      0.00000000      0.00000000      0.00000000      0.00000000      0.00000000      0.00000000</v>
  </separator>
  <separator name="performance" >
   <i type="int" name="NPAR">     4</i>
   <i type="int" name="NSIM">     4</i>
   <i type="int" name="NBLK">    -1</i>
   <i type="logical" name="LPLANE"> T  </i>
   <i type="logical" name="LSCALAPACK"> T  </i>
   <i type="logical" name="LSCAAWARE"> F  </i>
   <i type="logical" name="LSCALU"> F  </i>
   <i type="logical" name="LASYNC"> F  </i>
   <i type="logical" name="LORBITALREAL"> F  </i>
  </separator>
  <separator name="miscellaneous" >
   <i type="int" name="IDIOT">     3</i>
   <i type="logical" name="LMUSIC"> F  </i>
   <v name="POMASS">     28.08500000</v>
   <v name="DARWINR">      0.00000000</v>
   <v name="DARWINV">      1.00000000</v>
   <i type="logical" name="LCORR"> T  </i>
  </separator>
  <i type="logical" name="GGA_COMPAT"> T  </i>
  <i type="logical" name="LBERRY"> F  </i>
  <i type="int" name="ICORELEVEL">     0</i>
  <i type="logical" name="LDAU"> F  </i>
  <i type="int" name="I_CONSTRAINED_M">     0</i>
  <separator name="electronic exchange-correlation" >
   <i type="string" name="GGA">--</i>
   <i type="int" name="VOSKOWN">     0</i>
   <i type="logical" name="LHFCALC"> F  </i>
   <i type="string" name="PRECFOCK"></i>
   <i type="logical" name="LSYMGRAD"> F  </i>
   <i type="logical" name="LHFONE"> F  </i>
   <i type="logical" name="LRHFCALC"> F  </i>
   <i type="logical" name="LTHOMAS"> F  </i>
   <i type="logical" name="LMODELHF"> F  </i>
   <i name="ENCUT4O">     -1.00000000</i>
   <i type="int" name="EXXOEP">     0</i>
   <i type="int" name="FOURORBIT">     0</i>
   <i name="AEXX">      0.00000000</i>
   <i name="HFALPHA">      0.00000000</i>
   <i name="MCALPHA">      0.00000000</i>
   <i name="ALDAX">      1.00000000</i>
   <i name="AGGAX">      1.00000000</i>
   <i name="ALDAC">      1.00000000</i>
   <i name="AGGAC">      1.00000000</i>
   <i type="int" name="NKREDX">     1</i>
   <i type="int" name="NKREDY">     1</i>
   <i type="int" name="NKREDZ">     1</i>
   <i type="logical" name="SHIFTRED"> F  </i>
   <i type="logical" name="ODDONLY"> F  </i>
   <i type="logical" name="EVENONLY"> F  </i>
   <i type="int" name="LMAXFOCK">     0</i>
   <i type="int" name="NMAXFOCKAE">     0</i>
   <i type="logical" name="LFOCKAEDFT"> F  </i>
   <i name="HFSCREEN">      0.00000000</i>
   <i name="HFSCREENC">      0.00000000</i>
   <i type="int" name="NBANDSGWLOW">     0</i>
  </separator>
  <separator name="vdW DFT" >
   <i type="logical" name="LUSE_VDW"> F  </i>
   <i name="Zab_VDW">     -0.84910000</i>
   <i name="PARAM1">      0.12340000</i>
   <i name="PARAM2">      1.00000000</i>
   <i name="PARAM3">      0.00000000</i>
  </separator>
  <separator name="model GW" >
   <i type="int" name="MODEL_GW">     0</i>
   <i name="MODEL_EPS0">     12.24990743</i>
   <i name="MODEL_ALPHA">      1.00000000</i>
  </separator>
  <separator name="linear response parameters" >
   <i type="logical" name="LEPSILON"> F  </i>
   <i type="logical" name="LRPA"> F  </i>
   <i type="logical" name="LNABLA"> F  </i>
   <i type="logical" name="LVEL"> F  </i>
   <i type="int" name="KINTER">     0</i>
   <i name="CSHIFT">      0.10000000</i>
   <i name="OMEGAMAX">     -1.00000000</i>
   <i name="DEG_THRESHOLD">      0.00200000</i>
  </separator>
  <separator name="orbital magnetization" >
   <i type="logical" name="NUCIND"> F  </i>
   <v name="MAGPOS">      0.00000000      0.00000000      0.00000000</v>
   <i type="logical" name="LNICSALL"> T  </i>
   <i type="logical" name="ORBITALMAG"> F  </i>
   <i type="logical" name="LMAGBLOCH"> F  </i>
   <i type="logical" name="LCHIMAG"> F  </i>
   <i type="logical" name="LGAUGE"> T  </i>
   <i type="int" name="MAGATOM">     0</i>
   <v name="MAGDIPOL">      0.00000000      0.00000000      0.00000000</v>
   <v name="AVECCONST">      0.00000000      0.00000000      0.00000000</v>
  </separator>
  <separator name="response functions" >
   <i type="logical" name="LADDER"> F  </i>
   <i type="logical" name="LFXC"> F  </i>
   <i type="logical" name="LHARTREE"> T  </i>
   <i type="int" name="IBSE">     0</i>
   <v type="int" name="KPOINT">    -1     0     0     0</v>
   <i type="logical" name="LTCTE"> F  </i>
   <i type="logical" name="LTETE"> F  </i>
   <i type="logical" name="LTRIPLET"> F  </i>
   <i type="logical" name="LFXCEPS"> F  </i>
   <i type="logical" name="LFXHEG"> F  </i>
   <i type="int" name="NATURALO">     0</i>
   <i type="logical" name="L2ORDER"> F  </i>
   <i type="logical" name="LUSEW"> F  </i>
   <i name="ENCUTGW">     -2.00000000</i>
   <i name="ENCUTGWSOFT">     -2.00000000</i>
   <i name="ENCUTLF">     -1.00000000</i>
   <i type="int" name="LMAXMP2">    -1</i>
   <i name="SCISSOR">      0.00000000</i>
   <i type="int" name="NOMEGA">     0</i>
   <i type="int" name="NOMEGAR">     0</i>
   <i type="int" name="NBANDSGW">    -1</i>
   <i type="int" name="NBANDSO">    -1</i>
   <i type="int" name="NBANDSV">    -1</i>
   <i type="int" name="NELM">     1</i>
   <i type="int" name="NELMHF">     1</i>
   <i type="int" name="DIM">     3</i>
   <i type="int" name="ANTIRES">     0</i>
   <i name="OMEGAMAX">    -30.00000000</i>
   <i name="OMEGAMIN">    -30.00000000</i>
   <i name="OMEGATL">   -200.00000000</i>
   <i type="int" name="OMEGAGRID">     0</i>
   <i name="CSHIFT">     -0.10000000</i>
   <i type="logical" name="SELFENERGY"> F  </i>
   <i type="logical" name="LSPECTRAL"> F  </i>
   <i type="logical" name="LSPECTRALGW"> F  </i>
   <i type="logical" name="LSINGLES"> F  </i>
   <i type="logical" name="LFERMIGW"> F  </i>
   <i type="logical" name="ODDONLYGW"> F  </i>
   <i type="logical" name="EVENONLYGW"> F  </i>
   <i type="int" name="NKREDLFX">     1</i>
   <i type="int" name="NKREDLFY">     1</i>
   <i type="int" name="NKREDLFZ">     1</i>
   <i type="int" name="MAXMEM">  1800</i>
   <i type="int" name="TELESCOPE">     0</i>
   <i type="int" name="TAUPAR">     1</i>
   <i type="int" name="OMEGAPAR">    -1</i>
   <i name="LAMBDA">      1.00000000</i>
  </separator>
  <separator name="External order field" >
   <i name="OFIELD_KAPPA">      0.00000000</i>
   <v name="OFIELD_K">      0.00000000      0.00000000      0.00000000</v>
   <i name="OFIELD_Q6_NEAR">      0.00000000</i>
   <i name="OFIELD_Q6_FAR">      0.00000000</i>
   <i name="OFIELD_A">      0.00000000</i>
  </separator>
 </parameters>
 <atominfo>
  <atoms>      64 </atoms>
  <types>       1 </types>
  <array name="atoms" >
   <dimension dim="1">ion</dimension>
   <field type="string">element</field>
   <field type="int">atomtype</field>
   <set>
    <rc><c>Si</c><c>   1</c></rc>
    <rc><c>Si</c><c>   1</c></rc>
    <rc><c>Si</c><c>   1</c></rc>
    <rc><c>Si</c><c>   1</c></rc>
    <rc><c>Si</c><c>   1</c></rc>
    <rc><c>Si</c><c>   1</c></rc>
    <rc><c>Si</c><c>   1</c></rc>
    <rc><c>Si</c><c>   1</c></rc>
    <rc><c>Si</c><c>   1</c></rc>
    <rc><c>Si</c><c>   1</c></rc>
    <rc><c>Si</c><c>   1</c></rc>
    <rc><c>Si</c><c>   1</c></rc>
    <rc><c>Si</c><c>   1</c></rc>
    <rc><c>Si</c><c>   1</c></rc>
    <rc><c>Si</c><c>   1</c></rc>
    <rc><c>Si</c><c>   1</c></rc>
    <rc><c>Si</c><c>   1</c></rc>
    <rc><c>Si</c><c>   1</c></rc>
    <rc><c>Si</c><c>   1</c></rc>
    <rc><c>Si</c><c>   1</c></rc>
    <rc><c>Si</c><c>   1</c></rc>
    <rc><c>Si</c><c>   1</c></rc>
    <rc><c>Si</c><c>   1</c></rc>
    <rc><c>Si</c><c>   1</c></rc>
    <rc><c>Si</c><c>   1</c></rc>
    <rc><c>Si</c><c>   1</c></rc>
    <rc><c>Si</c><c>   1</c></rc>
    <rc><c>Si</c><c>   1</c></rc>
    <rc><c>Si</c><c>   1</c></rc>
    <rc><c>Si</c><c>   1</c></rc>
    <rc><c>Si</c><c>   1</c></rc>
    <rc><c>Si</c><c>   1</c></rc>
    <rc><c>Si</c><c>   1</c></rc>
    <rc><c>Si</c><c>   1</c></rc>
    <rc><c>Si</c><c>   1</c></rc>
    <rc><c>Si</c><c>   1</c></rc>
    <rc><c>Si</c><c>   1</c></rc>
    <rc><c>Si</c><c>   1</c></rc>
    <rc><c>Si</c><c>   1</c></rc>
    <rc><c>Si</c><c>   1</c></rc>
    <rc><c>Si</c><c>   1</c></rc>
    <rc><c>Si</c><c>   1</c></rc>
    <rc><c>Si</c><c>   1</c></rc>
    <rc><c>Si</c><c>   1</c></rc>
    <rc><c>Si</c><c>   1</c></rc>
    <rc><c>Si</c><c>   1</c></rc>
    <rc><c>Si</c><c>   1</c></rc>
    <rc><c>Si</c><c>   1</c></rc>
    <rc><c>Si</c><c>   1</c></rc>
    <rc><c>Si</c><c>   1</c></rc>
    <rc><c>Si</c><c>   1</c></rc>
    <rc><c>Si</c><c>   1</c></rc>
    <rc><c>Si</c><c>   1</c></rc>
    <rc><c>Si</c><c>   1</c></rc>
    <rc><c>Si</c><c>   1</c></rc>
    <rc><c>Si</c><c>   1</c></rc>
    <rc><c>Si</c><c>   1</c></rc>
    <rc><c>Si</c><c>   1</c></rc>
    <rc><c>Si</c><c>   1</c></rc>
    <rc><c>Si</c><c>   1</c></rc>
    <rc><c>Si</c><c>   1</c></rc>
    <rc><c>Si</c><c>   1</c></rc>
    <rc><c>Si</c><c>   1</c></rc>
    <rc><c>Si</c><c>   1</c></rc>
   </set>
  </array>
  <array name="atomtypes" >
   <dimension dim="1">type</dimension>
   <field type="int">atomspertype</field>
   <field type="string">element</field>
   <field>mass</field>
   <field>valence</field>
   <field type="string">pseudopotential</field>
   <set>
    <rc><c>  64</c><c>Si</c><c>     28.08500000</c><c>      4.00000000</c><c>  PAW_PBE Si 05Jan2001                  </c></rc>
   </set>
  </array>
 </atominfo>
 <structure name="initialpos" >
  <crystal>
   <varray name="basis" >
    <v>      10.93252578       0.00000000       0.00000000 </v>
    <v>       0.00000000      10.93252578       0.00000000 </v>
    <v>       0.00000000       0.00000000      10.93252578 </v>
   </varray>
   <i name="volume">   1306.65679237 </i>
   <varray name="rec_basis" >
    <v>       0.09147017       0.00000000       0.00000000 </v>
    <v>       0.00000000       0.09147017       0.00000000 </v>
    <v>       0.00000000       0.00000000       0.09147017 </v>
   </varray>
  </crystal>
  <varray name="positions" >
   <v>       0.44024411       0.43750000       0.43750000 </v>
   <v>       0.93750000       0.43750000       0.43750000 </v>
   <v>       0.43750000       0.93750000       0.43750000 </v>
   <v>       0.93750000       0.93750000       0.43750000 </v>
   <v>       0.43750000       0.43750000       0.93750000 </v>
   <v>       0.93750000       0.43750000       0.93750000 </v>
   <v>       0.43750000       0.93750000       0.93750000 </v>
   <v>       0.93750000       0.93750000       0.93750000 </v>
   <v>       0.43750000       0.18750000       0.18750000 </v>
   <v>       0.93750000       0.18750000       0.18750000 </v>
   <v>       0.43750000       0.68750000       0.18750000 </v>
   <v>       0.93750000       0.68750000       0.18750000 </v>
   <v>       0.43750000       0.18750000       0.68750000 </v>
   <v>       0.93750000       0.18750000       0.68750000 </v>
   <v>       0.43750000       0.68750000       0.68750000 </v>
   <v>       0.93750000       0.68750000       0.68750000 </v>
   <v>       0.18750000       0.43750000       0.18750000 </v>
   <v>       0.68750000       0.43750000       0.18750000 </v>
   <v>       0.18750000       0.93750000       0.18750000 </v>
   <v>       0.68750000       0.93750000       0.18750000 </v>
   <v>       0.18750000       0.43750000       0.68750000 </v>
   <v>       0.68750000       0.43750000       0.68750000 </v>
   <v>       0.18750000       0.93750000       0.68750000 </v>
   <v>       0.68750000       0.93750000       0.68750000 </v>
   <v>       0.18750000       0.18750000       0.43750000 </v>
   <v>       0.68750000       0.18750000       0.43750000 </v>
   <v>       0.18750000       0.68750000       0.43750000 </v>
   <v>       0.68750000       0.68750000       0.43750000 </v>
   <v>       0.18750000       0.18750000       0.93750000 </v>
   <v>       0.68750000       0.18750000       0.93750000 </v>
   <v>       0.18750000       0.68750000       0.93750000 </v>
   <v>       0.68750000       0.68750000       0.93750000 </v>
   <v>       0.06250000       0.06250000       0.06250000 </v>
   <v>       0.56250000       0.06250000       0.06250000 </v>
   <v>       0.06250000       0.56250000       0.06250000 </v>
   <v>       0.56250000       0.56250000       0.06250000 </v>
   <v>       0.06250000       0.06250000       0.56250000 </v>
   <v>       0.56250000       0.06250000       0.56250000 </v>
   <v>       0.06250000       0.56250000       0.56250000 </v>
   <v>       0.56250000       0.56250000       0.56250000 </v>
   <v>       0.06250000       0.31250000       0.31250000 </v>
   <v>       0.56250000       0.31250000       0.31250000 </v>
   <v>       0.06250000       0.81250000       0.31250000 </v>
   <v>       0.56250000       0.81250000       0.31250000 </v>
   <v>       0.06250000       0.31250000       0.81250000 </v>
   <v>       0.56250000       0.31250000       0.81250000 </v>
   <v>       0.06250000       0.81250000       0.81250000 </v>
   <v>       0.56250000       0.81250000       0.81250000 </v>
   <v>       0.31250000       0.06250000       0.31250000 </v>
   <v>       0.81250000       0.06250000       0.31250000 </v>
   <v>       0.31250000       0.56250000       0.31250000 </v>
   <v>       0.81250000       0.56250000       0.31250000 </v>
   <v>       0.31250000       0.06524411       0.81250000 </v>
   <v>       0.81250000       0.06250000       0.81250000 </v>
   <v>       0.31250000       0.56250000       0.81250000 </v>
   <v>       0.81250000       0.56250000       0.81250000 </v>
   <v>       0.31250000       0.31250000       0.06250000 </v>
   <v>       0.81250000       0.31250000       0.06250000 </v>
   <v>       0.31250000       0.81250000       0.06250000 </v>
   <v>       0.81250000       0.81250000       0.06250000 </v>
   <v>       0.31250000       0.31250000       0.56250000 </v>
   <v>       0.81250000       0.31250000       0.56250000 </v>
   <v>       0.31250000       0.81250000       0.56250000 </v>
   <v>       0.81250000       0.81250000       0.56250000 </v>
  </varray>
 </structure>
 <calculation>
  <scstep>
   <time name="dav">    4.18    4.18</time>
   <time name="total">    4.35    4.36</time>
   <energy>
    <i name="alphaZ">    105.52440745 </i>
    <i name="ewald">  -7265.47156393 </i>
    <i name="hartreedc">   -361.71208343 </i>
    <i name="XCdc">   -597.75714178 </i>
    <i name="pawpsdc">   5639.92317535 </i>
    <i name="pawaedc">  -4513.95313856 </i>
    <i name="eentropy">     -0.00133791 </i>
    <i name="bandstr">    856.86383840 </i>
    <i name="atom">   6596.14994790 </i>
    <i name="e_fr_energy">    459.56610350 </i>
    <i name="e_wo_entrp">    459.56744141 </i>
    <i name="e_0_energy">    459.56677246 </i>
   </energy>
  </scstep>
  <scstep>
   <time name="dav">    4.79    4.79</time>
   <time name="total">    4.79    4.80</time>
   <energy>
    <i name="e_fr_energy">   -300.08156324 </i>
    <i name="e_wo_entrp">   -300.08156324 </i>
    <i name="e_0_energy">   -300.08156324 </i>
   </energy>
  </scstep>
  <scstep>
   <time name="dav">    4.83    4.83</time>
   <time name="total">    4.83    4.84</time>
   <energy>
    <i name="e_fr_energy">   -350.93674120 </i>
    <i name="e_wo_entrp">   -350.93674120 </i>
    <i name="e_0_energy">   -350.93674120 </i>
   </energy>
  </scstep>
  <scstep>
   <time name="dav">    4.81    4.81</time>
   <time name="total">    4.81    4.82</time>
   <energy>
    <i name="e_fr_energy">   -352.26767380 </i>
    <i name="e_wo_entrp">   -352.26767380 </i>
    <i name="e_0_energy">   -352.26767380 </i>
   </energy>
  </scstep>
  <scstep>
   <time name="dav">    4.81    4.81</time>
   <time name="total">    5.03    5.03</time>
   <energy>
    <i name="e_fr_energy">   -352.31323313 </i>
    <i name="e_wo_entrp">   -352.31323313 </i>
    <i name="e_0_energy">   -352.31323313 </i>
   </energy>
  </scstep>
  <scstep>
   <time name="dav">    4.65    4.65</time>
   <time name="total">    5.04    5.05</time>
   <energy>
    <i name="e_fr_energy">   -348.58451293 </i>
    <i name="e_wo_entrp">   -348.58451293 </i>
    <i name="e_0_energy">   -348.58451293 </i>
   </energy>
  </scstep>
  <scstep>
   <time name="dav">    4.76    4.77</time>
   <time name="total">    5.16    5.16</time>
   <energy>
    <i name="e_fr_energy">   -346.87184838 </i>
    <i name="e_wo_entrp">   -346.87184838 </i>
    <i name="e_0_energy">   -346.87184838 </i>
   </energy>
  </scstep>
  <scstep>
   <time name="dav">    4.74    4.74</time>
   <time name="total">    5.13    5.14</time>
   <energy>
    <i name="e_fr_energy">   -346.89809538 </i>
    <i name="e_wo_entrp">   -346.89809538 </i>
    <i name="e_0_energy">   -346.89809538 </i>
   </energy>
  </scstep>
  <scstep>
   <time name="dav">    4.89    4.89</time>
   <time name="total">    5.28    5.32</time>
   <energy>
    <i name="e_fr_energy">   -346.90485829 </i>
    <i name="e_wo_entrp">   -346.90485829 </i>
    <i name="e_0_energy">   -346.90485829 </i>
   </energy>
  </scstep>
  <scstep>
   <time name="dav">    4.55    4.55</time>
   <time name="total">    4.94    4.95</time>
   <energy>
    <i name="e_fr_energy">   -346.90690146 </i>
    <i name="e_wo_entrp">   -346.90690146 </i>
    <i name="e_0_energy">   -346.90690146 </i>
   </energy>
  </scstep>
  <scstep>
   <time name="dav">    4.82    4.83</time>
   <time name="total">    5.21    5.23</time>
   <energy>
    <i name="e_fr_energy">   -346.90687679 </i>
    <i name="e_wo_entrp">   -346.90687679 </i>
    <i name="e_0_energy">   -346.90687679 </i>
   </energy>
  </scstep>
  <scstep>
   <time name="dav">    4.74    4.75</time>
   <time name="total">    5.13    5.15</time>
   <energy>
    <i name="e_fr_energy">   -346.90689145 </i>
    <i name="e_wo_entrp">   -346.90689145 </i>
    <i name="e_0_energy">   -346.90689145 </i>
   </energy>
  </scstep>
  <scstep>
   <time name="dav">    4.73    4.73</time>
   <time name="total">    5.12    5.13</time>
   <energy>
    <i name="e_fr_energy">   -346.90689201 </i>
    <i name="e_wo_entrp">   -346.90689201 </i>
    <i name="e_0_energy">   -346.90689201 </i>
   </energy>
  </scstep>
  <scstep>
   <time name="dav">    4.86    4.86</time>
   <time name="total">    5.25    5.26</time>
   <energy>
    <i name="e_fr_energy">   -346.90689265 </i>
    <i name="e_wo_entrp">   -346.90689265 </i>
    <i name="e_0_energy">   -346.90689265 </i>
   </energy>
  </scstep>
  <scstep>
   <time name="dav">    3.99    4.00</time>
   <time name="total">    4.39    4.39</time>
   <energy>
    <i name="e_fr_energy">   -346.90689241 </i>
    <i name="e_wo_entrp">   -346.90689241 </i>
    <i name="e_0_energy">   -346.90689241 </i>
   </energy>
  </scstep>
  <scstep>
   <time name="dav">    3.26    3.26</time>
   <time name="total">    3.65    3.66</time>
   <energy>
    <i name="e_fr_energy">   -346.90689248 </i>
    <i name="e_wo_entrp">   -346.90689248 </i>
    <i name="e_0_energy">   -346.90689248 </i>
   </energy>
  </scstep>
  <scstep>
   <time name="dav">    3.22    3.23</time>
   <time name="total">    3.61    3.63</time>
   <energy>
    <i name="e_fr_energy">   -346.90689247 </i>
    <i name="e_wo_entrp">   -346.90689247 </i>
    <i name="e_0_energy">   -346.90689247 </i>
   </energy>
  </scstep>
  <scstep>
   <time name="dav">    3.22    3.23</time>
   <time name="total">    3.62    3.62</time>
   <energy>
    <i name="e_fr_energy">   -346.90689248 </i>
    <i name="e_wo_entrp">   -346.90689248 </i>
    <i name="e_0_energy">   -346.90689248 </i>
   </energy>
  </scstep>
  <scstep>
   <time name="dav">    3.21    3.22</time>
   <time name="total">    3.38    3.43</time>
   <energy>
    <i name="alphaZ">    105.52440745 </i>
    <i name="ewald">  -7265.47156393 </i>
    <i name="hartreedc">   -485.14300339 </i>
    <i name="XCdc">   -577.61228893 </i>
    <i name="pawpsdc">  27883.43636821 </i>
    <i name="pawaedc"> -26764.15429696 </i>
    <i name="eentropy">      0.00000000 </i>
    <i name="bandstr">    160.36353716 </i>
    <i name="atom">   6596.14994790 </i>
    <i name="e_fr_energy">   -346.90689249 </i>
    <i name="e_wo_entrp">   -346.90689249 </i>
    <i name="e_0_energy">   -346.90689249 </i>
   </energy>
  </scstep>
  <structure>
   <crystal>
    <varray name="basis" >
     <v>      10.93252578       0.00000000       0.00000000 </v>
     <v>       0.00000000      10.93252578       0.00000000 </v>
     <v>       0.00000000       0.00000000      10.93252578 </v>
    </varray>
    <i name="volume">   1306.65679237 </i>
    <varray name="rec_basis" >
     <v>       0.09147017       0.00000000       0.00000000 </v>
     <v>       0.00000000       0.09147017       0.00000000 </v>
     <v>       0.00000000       0.00000000       0.09147017 </v>
    </varray>
   </crystal>
   <varray name="positions" >
    <v>       0.44024411       0.43750000       0.43750000 </v>
    <v>       0.93750000       0.43750000       0.43750000 </v>
    <v>       0.43750000       0.93750000       0.43750000 </v>
    <v>       0.93750000       0.93750000       0.43750000 </v>
    <v>       0.43750000       0.43750000       0.93750000 </v>
    <v>       0.93750000       0.43750000       0.93750000 </v>
    <v>       0.43750000       0.93750000       0.93750000 </v>
    <v>       0.93750000       0.93750000       0.93750000 </v>
    <v>       0.43750000       0.18750000       0.18750000 </v>
    <v>       0.93750000       0.18750000       0.18750000 </v>
    <v>       0.43750000       0.68750000       0.18750000 </v>
    <v>       0.93750000       0.68750000       0.18750000 </v>
    <v>       0.43750000       0.18750000       0.68750000 </v>
    <v>       0.93750000       0.18750000       0.68750000 </v>
    <v>       0.43750000       0.68750000       0.68750000 </v>
    <v>       0.93750000       0.68750000       0.68750000 </v>
    <v>       0.18750000       0.43750000       0.18750000 </v>
    <v>       0.68750000       0.43750000       0.18750000 </v>
    <v>       0.18750000       0.93750000       0.18750000 </v>
    <v>       0.68750000       0.93750000       0.18750000 </v>
    <v>       0.18750000       0.43750000       0.68750000 </v>
    <v>       0.68750000       0.43750000       0.68750000 </v>
    <v>       0.18750000       0.93750000       0.68750000 </v>
    <v>       0.68750000       0.93750000       0.68750000 </v>
    <v>       0.18750000       0.18750000       0.43750000 </v>
    <v>       0.68750000       0.18750000       0.43750000 </v>
    <v>       0.18750000       0.68750000       0.43750000 </v>
    <v>       0.68750000       0.68750000       0.43750000 </v>
    <v>       0.18750000       0.18750000       0.93750000 </v>
    <v>       0.68750000       0.18750000       0.93750000 </v>
    <v>       0.18750000       0.68750000       0.93750000 </v>
    <v>       0.68750000       0.68750000       0.93750000 </v>
    <v>       0.06250000       0.06250000       0.06250000 </v>
    <v>       0.56250000       0.06250000       0.06250000 </v>
    <v>       0.06250000       0.56250000       0.06250000 </v>
    <v>       0.56250000       0.56250000       0.06250000 </v>
    <v>       0.06250000       0.06250000       0.56250000 </v>
    <v>       0.56250000       0.06250000       0.56250000 </v>
    <v>       0.06250000       0.56250000       0.56250000 </v>
    <v>       0.56250000       0.56250000       0.56250000 </v>
    <v>       0.06250000       0.31250000       0.31250000 </v>
    <v>       0.56250000       0.31250000       0.31250000 </v>
    <v>       0.06250000       0.81250000       0.31250000 </v>
    <v>       0.56250000       0.81250000       0.31250000 </v>
    <v>       0.06250000       0.31250000       0.81250000 </v>
    <v>       0.56250000       0.31250000       0.81250000 </v>
    <v>       0.06250000       0.81250000       0.81250000 </v>
    <v>       0.56250000       0.81250000       0.81250000 </v>
    <v>       0.31250000       0.06250000       0.31250000 </v>
    <v>       0.81250000       0.06250000       0.31250000 </v>
    <v>       0.31250000       0.56250000       0.31250000 </v>
    <v>       0.81250000       0.56250000       0.31250000 </v>
    <v>       0.31250000       0.06524411       0.81250000 </v>
    <v>       0.81250000       0.06250000       0.81250000 </v>
    <v>       0.31250000       0.56250000       0.81250000 </v>
    <v>       0.81250000       0.56250000       0.81250000 </v>
    <v>       0.31250000       0.31250000       0.06250000 </v>
    <v>       0.81250000       0.31250000       0.06250000 </v>
    <v>       0.31250000       0.81250000       0.06250000 </v>
    <v>       0.81250000       0.81250000       0.06250000 </v>
    <v>       0.31250000       0.31250000       0.56250000 </v>
    <v>       0.81250000       0.31250000       0.56250000 </v>
    <v>       0.31250000       0.81250000       0.56250000 </v>
    <v>       0.81250000       0.81250000       0.56250000 </v>
   </varray>
  </structure>
  <varray name="forces" >
   <v>      -0.38783246       0.00065969      -0.00065909 </v>
   <v>      -0.00019709      -0.00053431      -0.00074646 </v>
   <v>       0.00007161      -0.00143211      -0.00089177 </v>
   <v>      -0.00085337       0.00614070      -0.00067596 </v>
   <v>       0.00041318      -0.00027501      -0.00090039 </v>
   <v>      -0.00081692       0.00065640      -0.00070971 </v>
   <v>      -0.07251080       0.09310255      -0.06093326 </v>
   <v>      -0.00031311      -0.00143054      -0.00124544 </v>
   <v>      -0.01166367       0.00129166       0.00184713 </v>
   <v>       0.00066001       0.00643595      -0.00046011 </v>
   <v>      -0.01212144       0.00328377      -0.00327089 </v>
   <v>       0.00075370      -0.00030142      -0.00098879 </v>
   <v>       0.05335339       0.09316070      -0.06339600 </v>
   <v>       0.00092428      -0.00170782      -0.00097727 </v>
   <v>      -0.01197635      -0.00304520      -0.00368038 </v>
   <v>       0.00057698       0.00039314      -0.00088614 </v>
   <v>       0.00635457      -0.00201162       0.00619948 </v>
   <v>       0.00655252      -0.00331084      -0.00494288 </v>
   <v>       0.00226314      -0.00165999      -0.00097077 </v>
   <v>       0.00170395       0.00591512       0.00252703 </v>
   <v>       0.00655232       0.00239599      -0.00465421 </v>
   <v>       0.00644504       0.00342240       0.00640675 </v>
   <v>       0.06197585       0.09331153       0.06280148 </v>
   <v>       0.00191101      -0.00120525      -0.00059790 </v>
   <v>       0.00444199       0.00408794      -0.00174460 </v>
   <v>       0.00511133       0.00051738      -0.00208249 </v>
   <v>       0.00499384      -0.00494074       0.00327233 </v>
   <v>       0.00504516       0.00515058       0.00352926 </v>
   <v>      -0.06509027       0.09392448       0.06588878 </v>
   <v>       0.00009432       0.00036731       0.00098095 </v>
   <v>       0.00010763       0.00158505       0.00114218 </v>
   <v>       0.00042095      -0.00123070       0.00087682 </v>
   <v>       0.00223019      -0.01212577      -0.00201443 </v>
   <v>       0.00887742      -0.01209093       0.00336077 </v>
   <v>       0.00084378       0.00062909       0.00037589 </v>
   <v>      -0.00124235       0.00120914       0.00115686 </v>
   <v>      -0.00205395      -0.01217715      -0.00201273 </v>
   <v>      -0.00423548      -0.01195099       0.00396894 </v>
   <v>      -0.00050821       0.00091018       0.00067627 </v>
   <v>       0.09557467       0.06609619       0.06632523 </v>
   <v>       0.00157019       0.00010955      -0.00068018 </v>
   <v>       0.09395289      -0.06507855      -0.06633821 </v>
   <v>      -0.00124305       0.00041406      -0.00042233 </v>
   <v>       0.00038793       0.00009266      -0.00144052 </v>
   <v>      -0.00507436       0.00515425       0.00216570 </v>
   <v>       0.00419980       0.00459825      -0.00370424 </v>
   <v>       0.00503181       0.00489464       0.00192961 </v>
   <v>       0.00066260       0.00496232      -0.00334620 </v>
   <v>      -0.00143282       0.00043138       0.00124756 </v>
   <v>       0.00066362      -0.01219245       0.00070696 </v>
   <v>       0.09306775      -0.06112308       0.06095333 </v>
   <v>      -0.00027766      -0.00032777       0.00090291 </v>
   <v>       0.00612939      -0.38786302       0.00067940 </v>
   <v>      -0.00053584       0.00057385       0.00074701 </v>
   <v>      -0.00143352      -0.00069662       0.00088813 </v>
   <v>       0.00066108      -0.00088468       0.00064754 </v>
   <v>      -0.00419982       0.00704481       0.00480199 </v>
   <v>       0.00043402       0.00173511      -0.00249066 </v>
   <v>       0.00346206       0.00631513      -0.00625346 </v>
   <v>      -0.00076649       0.00175991       0.00111496 </v>
   <v>       0.09582272       0.06675155      -0.06668551 </v>
   <v>      -0.00004715       0.00192284       0.00094155 </v>
   <v>       0.00123736       0.00653225       0.00431309 </v>
   <v>       0.00089016       0.00165706      -0.00257293 </v>
  </varray>
  <varray name="stress" >
   <v>       0.00172260       0.00007882      -0.33479686 </v>
   <v>       0.00007879       0.00153328       0.33472692 </v>
   <v>      -0.33479685       0.33472690       0.02105156 </v>
  </varray>
  <energy>
   <i name="e_fr_energy">   -346.90689249 </i>
   <i name="e_wo_entrp">   -346.90689249 </i>
   <i name="e_0_energy">      0.00000000 </i>
  </energy>
  <time name="totalsc">   98.35   98.66</time>
  <eigenvalues>
   <array>
    <dimension dim="1">band</dimension>
    <dimension dim="2">kpoint</dimension>
    <dimension dim="3">spin</dimension>
    <field>eigene</field>
    <field>occ</field>
    <set>
     <set comment="spin 1">
      <set comment="kpoint 1">
       <r>   -5.9932    1.0000 </r>
       <r>   -5.4673    1.0000 </r>
       <r>   -5.4654    1.0000 </r>
       <r>   -5.4616    1.0000 </r>
       <r>   -4.9679    1.0000 </r>
       <r>   -4.9661    1.0000 </r>
       <r>   -4.9625    1.0000 </r>
       <r>   -4.5322    1.0000 </r>
       <r>   -4.4351    1.0000 </r>
       <r>   -4.4331    1.0000 </r>
       <r>   -4.4291    1.0000 </r>
       <r>   -4.0247    1.0000 </r>
       <r>   -4.0196    1.0000 </r>
       <r>   -4.0173    1.0000 </r>
       <r>   -4.0150    1.0000 </r>
       <r>   -4.0142    1.0000 </r>
       <r>   -4.0079    1.0000 </r>
       <r>   -3.8285    1.0000 </r>
       <r>   -3.8244    1.0000 </r>
       <r>   -3.8200    1.0000 </r>
       <r>   -3.3318    1.0000 </r>
       <r>   -3.3287    1.0000 </r>
       <r>   -3.3246    1.0000 </r>
       <r>   -2.9641    1.0000 </r>
       <r>   -2.9591    1.0000 </r>
       <r>   -2.9544    1.0000 </r>
       <r>   -2.7987    1.0000 </r>
       <r>   -2.7936    1.0000 </r>
       <r>   -2.7920    1.0000 </r>
       <r>   -2.7898    1.0000 </r>
       <r>   -2.7883    1.0000 </r>
       <r>   -2.7826    1.0000 </r>
       <r>   -1.2573    1.0000 </r>
       <r>   -1.2517    1.0000 </r>
       <r>   -1.2503    1.0000 </r>
       <r>   -1.2460    1.0000 </r>
       <r>   -1.2456    1.0000 </r>
       <r>   -1.2423    1.0000 </r>
       <r>   -1.1561    1.0000 </r>
       <r>   -1.1511    1.0000 </r>
       <r>   -1.1461    1.0000 </r>
       <r>   -1.0380    1.0000 </r>
       <r>   -1.0328    1.0000 </r>
       <r>   -1.0271    1.0000 </r>
       <r>   -0.9539    1.0000 </r>
       <r>   -0.9463    1.0000 </r>
       <r>   -0.9400    1.0000 </r>
       <r>   -0.2446    1.0000 </r>
       <r>   -0.1693    1.0000 </r>
       <r>   -0.1634    1.0000 </r>
       <r>   -0.1618    1.0000 </r>
       <r>   -0.1568    1.0000 </r>
       <r>   -0.1554    1.0000 </r>
       <r>   -0.1540    1.0000 </r>
       <r>    0.7083    1.0000 </r>
       <r>    0.7144    1.0000 </r>
       <r>    0.7201    1.0000 </r>
       <r>    1.0429    1.0000 </r>
       <r>    1.0472    1.0000 </r>
       <r>    1.0512    1.0000 </r>
       <r>    1.6521    1.0000 </r>
       <r>    1.6546    1.0000 </r>
       <r>    1.6569    1.0000 </r>
       <r>    1.6576    1.0000 </r>
       <r>    1.6585    1.0000 </r>
       <r>    1.6619    1.0000 </r>
       <r>    1.7131    1.0000 </r>
       <r>    1.7163    1.0000 </r>
       <r>    1.7189    1.0000 </r>
       <r>    2.2649    1.0000 </r>
       <r>    2.2678    1.0000 </r>
       <r>    2.2705    1.0000 </r>
       <r>    2.3656    1.0000 </r>
       <r>    2.3669    1.0000 </r>
       <r>    2.3696    1.0000 </r>
       <r>    2.3730    1.0000 </r>
       <r>    2.3736    1.0000 </r>
       <r>    2.3762    1.0000 </r>
       <r>    2.4214    1.0000 </r>
       <r>    2.4245    1.0000 </r>
       <r>    2.4295    1.0000 </r>
       <r>    2.7298    1.0000 </r>
       <r>    2.7327    1.0000 </r>
       <r>    2.7345    1.0000 </r>
       <r>    2.7353    1.0000 </r>
       <r>    2.7372    1.0000 </r>
       <r>    2.7402    1.0000 </r>
       <r>    2.9969    1.0000 </r>
       <r>    2.9989    1.0000 </r>
       <r>    3.0021    1.0000 </r>
       <r>    3.0096    1.0000 </r>
       <r>    3.0137    1.0000 </r>
       <r>    3.0171    1.0000 </r>
       <r>    3.3586    1.0000 </r>
       <r>    3.3624    1.0000 </r>
       <r>    3.3646    1.0000 </r>
       <r>    3.3805    1.0000 </r>
       <r>    3.3841    1.0000 </r>
       <r>    3.3887    1.0000 </r>
       <r>    3.4639    1.0000 </r>
       <r>    3.4671    1.0000 </r>
       <r>    3.4689    1.0000 </r>
       <r>    3.7332    1.0000 </r>
       <r>    3.7393    1.0000 </r>
       <r>    3.7403    1.0000 </r>
       <r>    3.7423    1.0000 </r>
       <r>    3.7440    1.0000 </r>
       <r>    3.7485    1.0000 </r>
       <r>    3.7776    1.0000 </r>
       <r>    3.7814    1.0000 </r>
       <r>    3.7834    1.0000 </r>
       <r>    4.0404    1.0000 </r>
       <r>    4.0948    1.0000 </r>
       <r>    4.0978    1.0000 </r>
       <r>    4.1014    1.0000 </r>
       <r>    4.3379    1.0000 </r>
       <r>    4.3413    1.0000 </r>
       <r>    4.3438    1.0000 </r>
       <r>    4.4000    1.0000 </r>
       <r>    4.4058    1.0000 </r>
       <r>    4.4119    1.0000 </r>
       <r>    4.5588    1.0000 </r>
       <r>    4.5670    1.0000 </r>
       <r>    4.8658    1.0000 </r>
       <r>    4.8706    1.0000 </r>
       <r>    4.8739    1.0000 </r>
       <r>    5.3450    1.0000 </r>
       <r>    5.3544    1.0000 </r>
       <r>    6.5603    0.0000 </r>
       <r>    6.5628    0.0000 </r>
       <r>    6.5670    0.0000 </r>
       <r>    6.9995    0.0000 </r>
       <r>    7.0062    0.0000 </r>
       <r>    7.0076    0.0000 </r>
       <r>    7.2337    0.0000 </r>
       <r>    7.4860    0.0000 </r>
       <r>    7.4920    0.0000 </r>
       <r>    7.4941    0.0000 </r>
       <r>    7.6153    0.0000 </r>
       <r>    7.6196    0.0000 </r>
       <r>    7.6238    0.0000 </r>
       <r>    7.7760    0.0000 </r>
       <r>    7.7802    0.0000 </r>
       <r>    7.7830    0.0000 </r>
       <r>    7.7986    0.0000 </r>
       <r>    7.8000    0.0000 </r>
       <r>    7.8053    0.0000 </r>
       <r>    8.0233    0.0000 </r>
       <r>    8.0266    0.0000 </r>
       <r>    8.0299    0.0000 </r>
       <r>    8.0323    0.0000 </r>
       <r>    8.0345    0.0000 </r>
       <r>    8.0364    0.0000 </r>
       <r>    8.0815    0.0000 </r>
       <r>    8.2917    0.0000 </r>
       <r>    8.2957    0.0000 </r>
       <r>    8.2975    0.0000 </r>
       <r>    8.4946    0.0000 </r>
       <r>    8.4996    0.0000 </r>
       <r>    8.5030    0.0000 </r>
       <r>    8.5053    0.0000 </r>
       <r>    8.5096    0.0000 </r>
       <r>    8.5193    0.0000 </r>
       <r>    8.5456    0.0000 </r>
      </set>
      <set comment="kpoint 2">
       <r>   -5.9931    1.0000 </r>
       <r>   -5.4674    1.0000 </r>
       <r>   -5.4648    1.0000 </r>
       <r>   -5.4624    1.0000 </r>
       <r>   -4.9680    1.0000 </r>
       <r>   -4.9653    1.0000 </r>
       <r>   -4.9631    1.0000 </r>
       <r>   -4.5312    1.0000 </r>
       <r>   -4.4345    1.0000 </r>
       <r>   -4.4321    1.0000 </r>
       <r>   -4.4296    1.0000 </r>
       <r>   -4.0257    1.0000 </r>
       <r>   -4.0205    1.0000 </r>
       <r>   -4.0154    1.0000 </r>
       <r>   -4.0149    1.0000 </r>
       <r>   -4.0134    1.0000 </r>
       <r>   -4.0117    1.0000 </r>
       <r>   -3.8293    1.0000 </r>
       <r>   -3.8239    1.0000 </r>
       <r>   -3.8217    1.0000 </r>
       <r>   -3.3294    1.0000 </r>
       <r>   -3.3263    1.0000 </r>
       <r>   -3.3241    1.0000 </r>
       <r>   -2.9651    1.0000 </r>
       <r>   -2.9576    1.0000 </r>
       <r>   -2.9559    1.0000 </r>
       <r>   -2.7984    1.0000 </r>
       <r>   -2.7957    1.0000 </r>
       <r>   -2.7897    1.0000 </r>
       <r>   -2.7895    1.0000 </r>
       <r>   -2.7870    1.0000 </r>
       <r>   -2.7863    1.0000 </r>
       <r>   -1.2559    1.0000 </r>
       <r>   -1.2531    1.0000 </r>
       <r>   -1.2470    1.0000 </r>
       <r>   -1.2462    1.0000 </r>
       <r>   -1.2446    1.0000 </r>
       <r>   -1.2438    1.0000 </r>
       <r>   -1.1557    1.0000 </r>
       <r>   -1.1485    1.0000 </r>
       <r>   -1.1465    1.0000 </r>
       <r>   -1.0346    1.0000 </r>
       <r>   -1.0322    1.0000 </r>
       <r>   -1.0263    1.0000 </r>
       <r>   -0.9555    1.0000 </r>
       <r>   -0.9512    1.0000 </r>
       <r>   -0.9456    1.0000 </r>
       <r>   -0.2481    1.0000 </r>
       <r>   -0.1674    1.0000 </r>
       <r>   -0.1626    1.0000 </r>
       <r>   -0.1585    1.0000 </r>
       <r>   -0.1554    1.0000 </r>
       <r>   -0.1549    1.0000 </r>
       <r>   -0.1534    1.0000 </r>
       <r>    0.7070    1.0000 </r>
       <r>    0.7124    1.0000 </r>
       <r>    0.7165    1.0000 </r>
       <r>    1.0454    1.0000 </r>
       <r>    1.0459    1.0000 </r>
       <r>    1.0500    1.0000 </r>
       <r>    1.6532    1.0000 </r>
       <r>    1.6549    1.0000 </r>
       <r>    1.6571    1.0000 </r>
       <r>    1.6579    1.0000 </r>
       <r>    1.6586    1.0000 </r>
       <r>    1.6608    1.0000 </r>
       <r>    1.7156    1.0000 </r>
       <r>    1.7165    1.0000 </r>
       <r>    1.7191    1.0000 </r>
       <r>    2.2632    1.0000 </r>
       <r>    2.2665    1.0000 </r>
       <r>    2.2679    1.0000 </r>
       <r>    2.3672    1.0000 </r>
       <r>    2.3693    1.0000 </r>
       <r>    2.3711    1.0000 </r>
       <r>    2.3733    1.0000 </r>
       <r>    2.3745    1.0000 </r>
       <r>    2.3771    1.0000 </r>
       <r>    2.4249    1.0000 </r>
       <r>    2.4261    1.0000 </r>
       <r>    2.4305    1.0000 </r>
       <r>    2.7295    1.0000 </r>
       <r>    2.7323    1.0000 </r>
       <r>    2.7350    1.0000 </r>
       <r>    2.7365    1.0000 </r>
       <r>    2.7368    1.0000 </r>
       <r>    2.7386    1.0000 </r>
       <r>    2.9985    1.0000 </r>
       <r>    2.9997    1.0000 </r>
       <r>    3.0029    1.0000 </r>
       <r>    3.0131    1.0000 </r>
       <r>    3.0137    1.0000 </r>
       <r>    3.0173    1.0000 </r>
       <r>    3.3564    1.0000 </r>
       <r>    3.3604    1.0000 </r>
       <r>    3.3630    1.0000 </r>
       <r>    3.3777    1.0000 </r>
       <r>    3.3825    1.0000 </r>
       <r>    3.3844    1.0000 </r>
       <r>    3.4652    1.0000 </r>
       <r>    3.4684    1.0000 </r>
       <r>    3.4696    1.0000 </r>
       <r>    3.7317    1.0000 </r>
       <r>    3.7340    1.0000 </r>
       <r>    3.7391    1.0000 </r>
       <r>    3.7412    1.0000 </r>
       <r>    3.7424    1.0000 </r>
       <r>    3.7435    1.0000 </r>
       <r>    3.7793    1.0000 </r>
       <r>    3.7827    1.0000 </r>
       <r>    3.7839    1.0000 </r>
       <r>    4.0365    1.0000 </r>
       <r>    4.0981    1.0000 </r>
       <r>    4.0988    1.0000 </r>
       <r>    4.1037    1.0000 </r>
       <r>    4.3401    1.0000 </r>
       <r>    4.3436    1.0000 </r>
       <r>    4.3451    1.0000 </r>
       <r>    4.3969    1.0000 </r>
       <r>    4.4016    1.0000 </r>
       <r>    4.4053    1.0000 </r>
       <r>    4.5617    1.0000 </r>
       <r>    4.5664    1.0000 </r>
       <r>    4.8690    1.0000 </r>
       <r>    4.8737    1.0000 </r>
       <r>    4.8755    1.0000 </r>
       <r>    5.3493    1.0000 </r>
       <r>    5.3547    1.0000 </r>
       <r>    6.5618    0.0000 </r>
       <r>    6.5653    0.0000 </r>
       <r>    6.5679    0.0000 </r>
       <r>    7.0011    0.0000 </r>
       <r>    7.0057    0.0000 </r>
       <r>    7.0087    0.0000 </r>
       <r>    7.2351    0.0000 </r>
       <r>    7.4886    0.0000 </r>
       <r>    7.4931    0.0000 </r>
       <r>    7.4950    0.0000 </r>
       <r>    7.6151    0.0000 </r>
       <r>    7.6170    0.0000 </r>
       <r>    7.6225    0.0000 </r>
       <r>    7.7777    0.0000 </r>
       <r>    7.7805    0.0000 </r>
       <r>    7.7828    0.0000 </r>
       <r>    7.7988    0.0000 </r>
       <r>    7.8007    0.0000 </r>
       <r>    7.8062    0.0000 </r>
       <r>    8.0221    0.0000 </r>
       <r>    8.0253    0.0000 </r>
       <r>    8.0280    0.0000 </r>
       <r>    8.0305    0.0000 </r>
       <r>    8.0329    0.0000 </r>
       <r>    8.0339    0.0000 </r>
       <r>    8.0838    0.0000 </r>
       <r>    8.2927    0.0000 </r>
       <r>    8.2958    0.0000 </r>
       <r>    8.2971    0.0000 </r>
       <r>    8.4944    0.0000 </r>
       <r>    8.4976    0.0000 </r>
       <r>    8.5012    0.0000 </r>
       <r>    8.5027    0.0000 </r>
       <r>    8.5091    0.0000 </r>
       <r>    8.5243    0.0000 </r>
       <r>    8.5376    0.0000 </r>
      </set>
      <set comment="kpoint 3">
       <r>   -5.9932    1.0000 </r>
       <r>   -5.4670    1.0000 </r>
       <r>   -5.4647    1.0000 </r>
       <r>   -5.4622    1.0000 </r>
       <r>   -4.9679    1.0000 </r>
       <r>   -4.9657    1.0000 </r>
       <r>   -4.9631    1.0000 </r>
       <r>   -4.5333    1.0000 </r>
       <r>   -4.4351    1.0000 </r>
       <r>   -4.4328    1.0000 </r>
       <r>   -4.4304    1.0000 </r>
       <r>   -4.0213    1.0000 </r>
       <r>   -4.0197    1.0000 </r>
       <r>   -4.0184    1.0000 </r>
       <r>   -4.0162    1.0000 </r>
       <r>   -4.0128    1.0000 </r>
       <r>   -4.0075    1.0000 </r>
       <r>   -3.8270    1.0000 </r>
       <r>   -3.8248    1.0000 </r>
       <r>   -3.8192    1.0000 </r>
       <r>   -3.3327    1.0000 </r>
       <r>   -3.3303    1.0000 </r>
       <r>   -3.3273    1.0000 </r>
       <r>   -2.9623    1.0000 </r>
       <r>   -2.9607    1.0000 </r>
       <r>   -2.9535    1.0000 </r>
       <r>   -2.7956    1.0000 </r>
       <r>   -2.7941    1.0000 </r>
       <r>   -2.7929    1.0000 </r>
       <r>   -2.7907    1.0000 </r>
       <r>   -2.7864    1.0000 </r>
       <r>   -2.7835    1.0000 </r>
       <r>   -1.2552    1.0000 </r>
       <r>   -1.2531    1.0000 </r>
       <r>   -1.2516    1.0000 </r>
       <r>   -1.2486    1.0000 </r>
       <r>   -1.2455    1.0000 </r>
       <r>   -1.2422    1.0000 </r>
       <r>   -1.1559    1.0000 </r>
       <r>   -1.1534    1.0000 </r>
       <r>   -1.1462    1.0000 </r>
       <r>   -1.0386    1.0000 </r>
       <r>   -1.0334    1.0000 </r>
       <r>   -1.0309    1.0000 </r>
       <r>   -0.9481    1.0000 </r>
       <r>   -0.9423    1.0000 </r>
       <r>   -0.9376    1.0000 </r>
       <r>   -0.2411    1.0000 </r>
       <r>   -0.1683    1.0000 </r>
       <r>   -0.1658    1.0000 </r>
       <r>   -0.1637    1.0000 </r>
       <r>   -0.1602    1.0000 </r>
       <r>   -0.1586    1.0000 </r>
       <r>   -0.1527    1.0000 </r>
       <r>    0.7120    1.0000 </r>
       <r>    0.7162    1.0000 </r>
       <r>    0.7215    1.0000 </r>
       <r>    1.0442    1.0000 </r>
       <r>    1.0482    1.0000 </r>
       <r>    1.0488    1.0000 </r>
       <r>    1.6527    1.0000 </r>
       <r>    1.6548    1.0000 </r>
       <r>    1.6564    1.0000 </r>
       <r>    1.6579    1.0000 </r>
       <r>    1.6593    1.0000 </r>
       <r>    1.6600    1.0000 </r>
       <r>    1.7128    1.0000 </r>
       <r>    1.7155    1.0000 </r>
       <r>    1.7165    1.0000 </r>
       <r>    2.2676    1.0000 </r>
       <r>    2.2684    1.0000 </r>
       <r>    2.2728    1.0000 </r>
       <r>    2.3639    1.0000 </r>
       <r>    2.3663    1.0000 </r>
       <r>    2.3691    1.0000 </r>
       <r>    2.3713    1.0000 </r>
       <r>    2.3729    1.0000 </r>
       <r>    2.3741    1.0000 </r>
       <r>    2.4199    1.0000 </r>
       <r>    2.4237    1.0000 </r>
       <r>    2.4250    1.0000 </r>
       <r>    2.7313    1.0000 </r>
       <r>    2.7320    1.0000 </r>
       <r>    2.7339    1.0000 </r>
       <r>    2.7347    1.0000 </r>
       <r>    2.7382    1.0000 </r>
       <r>    2.7405    1.0000 </r>
       <r>    2.9957    1.0000 </r>
       <r>    2.9988    1.0000 </r>
       <r>    2.9993    1.0000 </r>
       <r>    3.0103    1.0000 </r>
       <r>    3.0133    1.0000 </r>
       <r>    3.0139    1.0000 </r>
       <r>    3.3610    1.0000 </r>
       <r>    3.3634    1.0000 </r>
       <r>    3.3668    1.0000 </r>
       <r>    3.3840    1.0000 </r>
       <r>    3.3850    1.0000 </r>
       <r>    3.3931    1.0000 </r>
       <r>    3.4636    1.0000 </r>
       <r>    3.4648    1.0000 </r>
       <r>    3.4682    1.0000 </r>
       <r>    3.7394    1.0000 </r>
       <r>    3.7404    1.0000 </r>
       <r>    3.7409    1.0000 </r>
       <r>    3.7433    1.0000 </r>
       <r>    3.7481    1.0000 </r>
       <r>    3.7509    1.0000 </r>
       <r>    3.7772    1.0000 </r>
       <r>    3.7787    1.0000 </r>
       <r>    3.7828    1.0000 </r>
       <r>    4.0445    1.0000 </r>
       <r>    4.0932    1.0000 </r>
       <r>    4.0967    1.0000 </r>
       <r>    4.0973    1.0000 </r>
       <r>    4.3372    1.0000 </r>
       <r>    4.3384    1.0000 </r>
       <r>    4.3419    1.0000 </r>
       <r>    4.4060    1.0000 </r>
       <r>    4.4103    1.0000 </r>
       <r>    4.4152    1.0000 </r>
       <r>    4.5593    1.0000 </r>
       <r>    4.5641    1.0000 </r>
       <r>    4.8647    1.0000 </r>
       <r>    4.8664    1.0000 </r>
       <r>    4.8712    1.0000 </r>
       <r>    5.3448    1.0000 </r>
       <r>    5.3501    1.0000 </r>
       <r>    6.5597    0.0000 </r>
       <r>    6.5608    0.0000 </r>
       <r>    6.5648    0.0000 </r>
       <r>    7.0001    0.0000 </r>
       <r>    7.0031    0.0000 </r>
       <r>    7.0078    0.0000 </r>
       <r>    7.2323    0.0000 </r>
       <r>    7.4862    0.0000 </r>
       <r>    7.4883    0.0000 </r>
       <r>    7.4928    0.0000 </r>
       <r>    7.6165    0.0000 </r>
       <r>    7.6223    0.0000 </r>
       <r>    7.6240    0.0000 </r>
       <r>    7.7771    0.0000 </r>
       <r>    7.7789    0.0000 </r>
       <r>    7.7821    0.0000 </r>
       <r>    7.7982    0.0000 </r>
       <r>    7.8012    0.0000 </r>
       <r>    7.8023    0.0000 </r>
       <r>    8.0267    0.0000 </r>
       <r>    8.0289    0.0000 </r>
       <r>    8.0300    0.0000 </r>
       <r>    8.0335    0.0000 </r>
       <r>    8.0357    0.0000 </r>
       <r>    8.0384    0.0000 </r>
       <r>    8.0792    0.0000 </r>
       <r>    8.2927    0.0000 </r>
       <r>    8.2942    0.0000 </r>
       <r>    8.2973    0.0000 </r>
       <r>    8.4969    0.0000 </r>
       <r>    8.4985    0.0000 </r>
       <r>    8.5014    0.0000 </r>
       <r>    8.5047    0.0000 </r>
       <r>    8.5097    0.0000 </r>
       <r>    8.5166    0.0000 </r>
       <r>    8.5414    0.0000 </r>
      </set>
      <set comment="kpoint 4">
       <r>   -5.9932    1.0000 </r>
       <r>   -5.4686    1.0000 </r>
       <r>   -5.4643    1.0000 </r>
       <r>   -5.4613    1.0000 </r>
       <r>   -4.9694    1.0000 </r>
       <r>   -4.9651    1.0000 </r>
       <r>   -4.9620    1.0000 </r>
       <r>   -4.5324    1.0000 </r>
       <r>   -4.4362    1.0000 </r>
       <r>   -4.4319    1.0000 </r>
       <r>   -4.4291    1.0000 </r>
       <r>   -4.0265    1.0000 </r>
       <r>   -4.0174    1.0000 </r>
       <r>   -4.0164    1.0000 </r>
       <r>   -4.0157    1.0000 </r>
       <r>   -4.0136    1.0000 </r>
       <r>   -4.0091    1.0000 </r>
       <r>   -3.8286    1.0000 </r>
       <r>   -3.8243    1.0000 </r>
       <r>   -3.8200    1.0000 </r>
       <r>   -3.3325    1.0000 </r>
       <r>   -3.3280    1.0000 </r>
       <r>   -3.3245    1.0000 </r>
       <r>   -2.9640    1.0000 </r>
       <r>   -2.9592    1.0000 </r>
       <r>   -2.9544    1.0000 </r>
       <r>   -2.7998    1.0000 </r>
       <r>   -2.7918    1.0000 </r>
       <r>   -2.7910    1.0000 </r>
       <r>   -2.7903    1.0000 </r>
       <r>   -2.7884    1.0000 </r>
       <r>   -2.7836    1.0000 </r>
       <r>   -1.2575    1.0000 </r>
       <r>   -1.2519    1.0000 </r>
       <r>   -1.2493    1.0000 </r>
       <r>   -1.2482    1.0000 </r>
       <r>   -1.2465    1.0000 </r>
       <r>   -1.2397    1.0000 </r>
       <r>   -1.1562    1.0000 </r>
       <r>   -1.1509    1.0000 </r>
       <r>   -1.1463    1.0000 </r>
       <r>   -1.0380    1.0000 </r>
       <r>   -1.0328    1.0000 </r>
       <r>   -1.0272    1.0000 </r>
       <r>   -0.9512    1.0000 </r>
       <r>   -0.9478    1.0000 </r>
       <r>   -0.9411    1.0000 </r>
       <r>   -0.2446    1.0000 </r>
       <r>   -0.1692    1.0000 </r>
       <r>   -0.1652    1.0000 </r>
       <r>   -0.1609    1.0000 </r>
       <r>   -0.1596    1.0000 </r>
       <r>   -0.1566    1.0000 </r>
       <r>   -0.1493    1.0000 </r>
       <r>    0.7103    1.0000 </r>
       <r>    0.7140    1.0000 </r>
       <r>    0.7186    1.0000 </r>
       <r>    1.0433    1.0000 </r>
       <r>    1.0471    1.0000 </r>
       <r>    1.0509    1.0000 </r>
       <r>    1.6525    1.0000 </r>
       <r>    1.6551    1.0000 </r>
       <r>    1.6560    1.0000 </r>
       <r>    1.6572    1.0000 </r>
       <r>    1.6597    1.0000 </r>
       <r>    1.6613    1.0000 </r>
       <r>    1.7134    1.0000 </r>
       <r>    1.7157    1.0000 </r>
       <r>    1.7193    1.0000 </r>
       <r>    2.2649    1.0000 </r>
       <r>    2.2678    1.0000 </r>
       <r>    2.2704    1.0000 </r>
       <r>    2.3645    1.0000 </r>
       <r>    2.3672    1.0000 </r>
       <r>    2.3708    1.0000 </r>
       <r>    2.3726    1.0000 </r>
       <r>    2.3741    1.0000 </r>
       <r>    2.3756    1.0000 </r>
       <r>    2.4209    1.0000 </r>
       <r>    2.4258    1.0000 </r>
       <r>    2.4284    1.0000 </r>
       <r>    2.7275    1.0000 </r>
       <r>    2.7332    1.0000 </r>
       <r>    2.7345    1.0000 </r>
       <r>    2.7359    1.0000 </r>
       <r>    2.7369    1.0000 </r>
       <r>    2.7416    1.0000 </r>
       <r>    2.9967    1.0000 </r>
       <r>    2.9988    1.0000 </r>
       <r>    3.0017    1.0000 </r>
       <r>    3.0098    1.0000 </r>
       <r>    3.0137    1.0000 </r>
       <r>    3.0176    1.0000 </r>
       <r>    3.3581    1.0000 </r>
       <r>    3.3618    1.0000 </r>
       <r>    3.3653    1.0000 </r>
       <r>    3.3805    1.0000 </r>
       <r>    3.3841    1.0000 </r>
       <r>    3.3892    1.0000 </r>
       <r>    3.4633    1.0000 </r>
       <r>    3.4663    1.0000 </r>
       <r>    3.4702    1.0000 </r>
       <r>    3.7341    1.0000 </r>
       <r>    3.7376    1.0000 </r>
       <r>    3.7412    1.0000 </r>
       <r>    3.7416    1.0000 </r>
       <r>    3.7442    1.0000 </r>
       <r>    3.7490    1.0000 </r>
       <r>    3.7771    1.0000 </r>
       <r>    3.7803    1.0000 </r>
       <r>    3.7848    1.0000 </r>
       <r>    4.0404    1.0000 </r>
       <r>    4.0948    1.0000 </r>
       <r>    4.0978    1.0000 </r>
       <r>    4.1014    1.0000 </r>
       <r>    4.3373    1.0000 </r>
       <r>    4.3407    1.0000 </r>
       <r>    4.3450    1.0000 </r>
       <r>    4.4022    1.0000 </r>
       <r>    4.4053    1.0000 </r>
       <r>    4.4102    1.0000 </r>
       <r>    4.5587    1.0000 </r>
       <r>    4.5670    1.0000 </r>
       <r>    4.8651    1.0000 </r>
       <r>    4.8696    1.0000 </r>
       <r>    4.8755    1.0000 </r>
       <r>    5.3451    1.0000 </r>
       <r>    5.3544    1.0000 </r>
       <r>    6.5603    0.0000 </r>
       <r>    6.5628    0.0000 </r>
       <r>    6.5671    0.0000 </r>
       <r>    7.0005    0.0000 </r>
       <r>    7.0032    0.0000 </r>
       <r>    7.0096    0.0000 </r>
       <r>    7.2337    0.0000 </r>
       <r>    7.4873    0.0000 </r>
       <r>    7.4894    0.0000 </r>
       <r>    7.4954    0.0000 </r>
       <r>    7.6152    0.0000 </r>
       <r>    7.6196    0.0000 </r>
       <r>    7.6238    0.0000 </r>
       <r>    7.7769    0.0000 </r>
       <r>    7.7795    0.0000 </r>
       <r>    7.7827    0.0000 </r>
       <r>    7.7989    0.0000 </r>
       <r>    7.8000    0.0000 </r>
       <r>    7.8050    0.0000 </r>
       <r>    8.0228    0.0000 </r>
       <r>    8.0267    0.0000 </r>
       <r>    8.0301    0.0000 </r>
       <r>    8.0319    0.0000 </r>
       <r>    8.0339    0.0000 </r>
       <r>    8.0376    0.0000 </r>
       <r>    8.0815    0.0000 </r>
       <r>    8.2922    0.0000 </r>
       <r>    8.2943    0.0000 </r>
       <r>    8.2984    0.0000 </r>
       <r>    8.4934    0.0000 </r>
       <r>    8.5004    0.0000 </r>
       <r>    8.5021    0.0000 </r>
       <r>    8.5038    0.0000 </r>
       <r>    8.5078    0.0000 </r>
       <r>    8.5157    0.0000 </r>
       <r>    8.5398    0.0000 </r>
      </set>
     </set>
    </set>
   </array>
  </eigenvalues>
  <separator name="orbital magnetization" >
   <v name="MAGDIPOLOUT">      0.00000000      0.00000000      0.00000000</v>
  </separator>
  <dos>
   <i name="efermi">      5.59754172 </i>
   <total>
    <array>
     <dimension dim="1">gridpoints</dimension>
     <dimension dim="2">spin</dimension>
     <field>energy</field>
     <field>total</field>
     <field>integrated</field>
     <set>
      <set comment="spin 1">
       <r>    -6.7202     0.0000     0.0000 </r>
       <r>    -6.6669     0.0000     0.0000 </r>
       <r>    -6.6135     0.0000     0.0000 </r>
       <r>    -6.5602     0.0000     0.0000 </r>
       <r>    -6.5069     0.0000     0.0000 </r>
       <r>    -6.4536     0.0000     0.0000 </r>
       <r>    -6.4003     0.0000     0.0000 </r>
       <r>    -6.3470     0.0000     0.0000 </r>
       <r>    -6.2937     0.0000     0.0000 </r>
       <r>    -6.2404     0.0000     0.0000 </r>
       <r>    -6.1871     0.0000     0.0000 </r>
       <r>    -6.1338     0.0013     0.0001 </r>
       <r>    -6.0805     0.2528     0.0135 </r>
       <r>    -6.0271     6.0562     0.3364 </r>
       <r>    -5.9738    20.2382     1.4153 </r>
       <r>    -5.9205    10.2194     1.9601 </r>
       <r>    -5.8672     0.7425     1.9996 </r>
       <r>    -5.8139     0.0069     2.0000 </r>
       <r>    -5.7606     0.0000     2.0000 </r>
       <r>    -5.7073     0.0000     2.0000 </r>
       <r>    -5.6540     0.0000     2.0000 </r>
       <r>    -5.6007     0.0070     2.0004 </r>
       <r>    -5.5474     1.1039     2.0592 </r>
       <r>    -5.4941    21.8686     3.2250 </r>
       <r>    -5.4407    61.5448     6.5059 </r>
       <r>    -5.3874    26.3890     7.9127 </r>
       <r>    -5.3341     1.6253     7.9993 </r>
       <r>    -5.2808     0.0128     8.0000 </r>
       <r>    -5.2275     0.0000     8.0000 </r>
       <r>    -5.1742     0.0000     8.0000 </r>
       <r>    -5.1209     0.0007     8.0000 </r>
       <r>    -5.0676     0.2228     8.0119 </r>
       <r>    -5.0143     9.2768     8.5064 </r>
       <r>    -4.9610    52.5279    11.3067 </r>
       <r>    -4.9077    44.7562    13.6926 </r>
       <r>    -4.8543     5.6712    13.9949 </r>
       <r>    -4.8010     0.0957    14.0000 </r>
       <r>    -4.7477     0.0002    14.0000 </r>
       <r>    -4.6944     0.0001    14.0000 </r>
       <r>    -4.6411     0.0390    14.0021 </r>
       <r>    -4.5878     2.1436    14.1164 </r>
       <r>    -4.5345    15.8586    14.9618 </r>
       <r>    -4.4812    26.1940    16.3581 </r>
       <r>    -4.4279    55.2597    19.3040 </r>
       <r>    -4.3746    44.8077    21.6926 </r>
       <r>    -4.3213     5.6700    21.9949 </r>
       <r>    -4.2680     0.0957    22.0000 </r>
       <r>    -4.2146     0.0002    22.0000 </r>
       <r>    -4.1613     0.0056    22.0003 </r>
       <r>    -4.1080     1.1580    22.0620 </r>
       <r>    -4.0547    30.7857    23.7032 </r>
       <r>    -4.0014   117.3470    29.9588 </r>
       <r>    -3.9481    69.5854    33.6684 </r>
       <r>    -3.8948     8.8054    34.1378 </r>
       <r>    -3.8415    32.8058    35.8866 </r>
       <r>    -3.7882    59.7794    39.0734 </r>
       <r>    -3.7349    16.7189    39.9646 </r>
       <r>    -3.6816     0.6599    39.9998 </r>
       <r>    -3.6282     0.0033    40.0000 </r>
       <r>    -3.5749     0.0000    40.0000 </r>
       <r>    -3.5216     0.0000    40.0000 </r>
       <r>    -3.4683     0.0045    40.0002 </r>
       <r>    -3.4150     0.8169    40.0438 </r>
       <r>    -3.3617    18.7269    41.0421 </r>
       <r>    -3.3084    60.7255    44.2793 </r>
       <r>    -3.2551    30.0891    45.8833 </r>
       <r>    -3.2018     2.1682    45.9989 </r>
       <r>    -3.1485     0.0202    46.0000 </r>
       <r>    -3.0952     0.0075    46.0004 </r>
       <r>    -3.0418     1.1261    46.0604 </r>
       <r>    -2.9885    21.9013    47.2280 </r>
       <r>    -2.9352    61.3469    50.4983 </r>
       <r>    -2.8819    27.6874    51.9743 </r>
       <r>    -2.8286    33.0352    53.7354 </r>
       <r>    -2.7753   117.8894    60.0199 </r>
       <r>    -2.7220    68.6330    63.6787 </r>
       <r>    -2.6687     5.9584    63.9963 </r>
       <r>    -2.6154     0.0688    64.0000 </r>
       <r>    -2.5621     0.0001    64.0000 </r>
       <r>    -2.5088     0.0000    64.0000 </r>
       <r>    -2.4554     0.0000    64.0000 </r>
       <r>    -2.4021     0.0000    64.0000 </r>
       <r>    -2.3488     0.0000    64.0000 </r>
       <r>    -2.2955     0.0000    64.0000 </r>
       <r>    -2.2422     0.0000    64.0000 </r>
       <r>    -2.1889     0.0000    64.0000 </r>
       <r>    -2.1356     0.0000    64.0000 </r>
       <r>    -2.0823     0.0000    64.0000 </r>
       <r>    -2.0290     0.0000    64.0000 </r>
       <r>    -1.9757     0.0000    64.0000 </r>
       <r>    -1.9224     0.0000    64.0000 </r>
       <r>    -1.8690     0.0000    64.0000 </r>
       <r>    -1.8157     0.0000    64.0000 </r>
       <r>    -1.7624     0.0000    64.0000 </r>
       <r>    -1.7091     0.0000    64.0000 </r>
       <r>    -1.6558     0.0000    64.0000 </r>
       <r>    -1.6025     0.0000    64.0000 </r>
       <r>    -1.5492     0.0000    64.0000 </r>
       <r>    -1.4959     0.0000    64.0000 </r>
       <r>    -1.4426     0.0000    64.0000 </r>
       <r>    -1.3893     0.0094    64.0005 </r>
       <r>    -1.3360     1.6422    64.0880 </r>
       <r>    -1.2826    37.0664    66.0640 </r>
       <r>    -1.2293   122.2112    72.5790 </r>
       <r>    -1.1760    86.7334    77.2026 </r>
       <r>    -1.1227    66.6299    80.7546 </r>
       <r>    -1.0694    39.1499    82.8417 </r>
       <r>    -1.0161    63.5778    86.2309 </r>
       <r>    -0.9628    67.1393    89.8100 </r>
       <r>    -0.9095    61.7968    93.1044 </r>
       <r>    -0.8562    16.1610    93.9659 </r>
       <r>    -0.8029     0.6364    93.9998 </r>
       <r>    -0.7496     0.0032    94.0000 </r>
       <r>    -0.6962     0.0000    94.0000 </r>
       <r>    -0.6429     0.0000    94.0000 </r>
       <r>    -0.5896     0.0000    94.0000 </r>
       <r>    -0.5363     0.0000    94.0000 </r>
       <r>    -0.4830     0.0000    94.0000 </r>
       <r>    -0.4297     0.0000    94.0000 </r>
       <r>    -0.3764     0.0038    94.0002 </r>
       <r>    -0.3231     0.4993    94.0268 </r>
       <r>    -0.2698     8.6976    94.4905 </r>
       <r>    -0.2165    33.2790    96.2646 </r>
       <r>    -0.1632    99.5518   101.5716 </r>
       <r>    -0.1099   102.5627   107.0391 </r>
       <r>    -0.0565    17.5988   107.9772 </r>
       <r>    -0.0032     0.4256   107.9999 </r>
       <r>     0.0501     0.0013   108.0000 </r>
       <r>     0.1034     0.0000   108.0000 </r>
       <r>     0.1567     0.0000   108.0000 </r>
       <r>     0.2100     0.0000   108.0000 </r>
       <r>     0.2633     0.0000   108.0000 </r>
       <r>     0.3166     0.0000   108.0000 </r>
       <r>     0.3699     0.0000   108.0000 </r>
       <r>     0.4232     0.0000   108.0000 </r>
       <r>     0.4765     0.0000   108.0000 </r>
       <r>     0.5299     0.0000   108.0000 </r>
       <r>     0.5832     0.0131   108.0007 </r>
       <r>     0.6365     1.6166   108.0869 </r>
       <r>     0.6898    26.0439   109.4752 </r>
       <r>     0.7431    61.3229   112.7443 </r>
       <r>     0.7964    22.3652   113.9366 </r>
       <r>     0.8497     1.1816   113.9996 </r>
       <r>     0.9030     0.0108   114.0001 </r>
       <r>     0.9563     0.5870   114.0314 </r>
       <r>     1.0096    15.7776   114.8725 </r>
       <r>     1.0629    59.3320   118.0355 </r>
       <r>     1.1163    33.9746   119.8466 </r>
       <r>     1.1696     2.8464   119.9983 </r>
       <r>     1.2229     0.0311   120.0000 </r>
       <r>     1.2762     0.0000   120.0000 </r>
       <r>     1.3295     0.0000   120.0000 </r>
       <r>     1.3828     0.0000   120.0000 </r>
       <r>     1.4361     0.0000   120.0000 </r>
       <r>     1.4894     0.0003   120.0000 </r>
       <r>     1.5427     0.1436   120.0077 </r>
       <r>     1.5960     9.5584   120.5172 </r>
       <r>     1.6493    87.0895   125.1599 </r>
       <r>     1.7027   145.7516   132.9297 </r>
       <r>     1.7560    79.8869   137.1884 </r>
       <r>     1.8093    14.7434   137.9744 </r>
       <r>     1.8626     0.4786   137.9999 </r>
       <r>     1.9159     0.0020   138.0000 </r>
       <r>     1.9692     0.0000   138.0000 </r>
       <r>     2.0225     0.0000   138.0000 </r>
       <r>     2.0758     0.0000   138.0000 </r>
       <r>     2.1291     0.0052   138.0003 </r>
       <r>     2.1824     0.9024   138.0484 </r>
       <r>     2.2357    19.7620   139.1019 </r>
       <r>     2.2891    63.5028   142.4871 </r>
       <r>     2.3424    75.1676   146.4943 </r>
       <r>     2.3957   146.7046   154.3149 </r>
       <r>     2.4490   112.8666   160.3317 </r>
       <r>     2.5023    29.6058   161.9100 </r>
       <r>     2.5556     1.6754   161.9993 </r>
       <r>     2.6089     0.0570   162.0023 </r>
       <r>     2.6622     4.5350   162.2441 </r>
       <r>     2.7155    61.2494   165.5092 </r>
       <r>     2.7688   121.0117   171.9602 </r>
       <r>     2.8221    36.6767   173.9154 </r>
       <r>     2.8755     1.6100   174.0013 </r>
       <r>     2.9288     3.5525   174.1906 </r>
       <r>     2.9821    52.8814   177.0097 </r>
       <r>     3.0354   121.0642   183.4635 </r>
       <r>     3.0887    45.0116   185.8630 </r>
       <r>     3.1420     2.5498   185.9990 </r>
       <r>     3.1953     0.0197   186.0000 </r>
       <r>     3.2486     0.0873   186.0047 </r>
       <r>     3.3019     6.1992   186.3351 </r>
       <r>     3.3552    64.9316   189.7966 </r>
       <r>     3.4085   120.9193   196.2427 </r>
       <r>     3.4619    81.2529   200.5742 </r>
       <r>     3.5152    54.6353   203.4867 </r>
       <r>     3.5685     9.4005   203.9879 </r>
       <r>     3.6218     0.3193   204.0049 </r>
       <r>     3.6751     7.2441   204.3910 </r>
       <r>     3.7284    81.4064   208.7307 </r>
       <r>     3.7817   164.8950   217.5211 </r>
       <r>     3.8350    75.9566   221.5703 </r>
       <r>     3.8883     7.9208   221.9925 </r>
       <r>     3.9416     0.2403   222.0054 </r>
       <r>     3.9949     3.8500   222.2106 </r>
       <r>     4.0482    27.1357   223.6572 </r>
       <r>     4.1016    65.6324   227.1560 </r>
       <r>     4.1549    47.2005   229.6722 </r>
       <r>     4.2082     6.0528   229.9948 </r>
       <r>     4.2615     1.5029   230.0750 </r>
       <r>     4.3148    25.0725   231.4116 </r>
       <r>     4.3681    77.3520   235.5351 </r>
       <r>     4.4214    82.5919   239.9380 </r>
       <r>     4.4747    36.1227   241.8637 </r>
       <r>     4.5280    14.7686   242.6510 </r>
       <r>     4.5813    40.1770   244.7928 </r>
       <r>     4.6346    21.0178   245.9132 </r>
       <r>     4.6880     1.6123   245.9991 </r>
       <r>     4.7413     0.0325   246.0009 </r>
       <r>     4.7946     1.8819   246.1012 </r>
       <r>     4.8479    28.0738   247.5978 </r>
       <r>     4.9012    61.1082   250.8554 </r>
       <r>     4.9545    20.4816   251.9472 </r>
       <r>     5.0078     0.9835   251.9997 </r>
       <r>     5.0611     0.0060   252.0000 </r>
       <r>     5.1144     0.0000   252.0000 </r>
       <r>     5.1677     0.0000   252.0000 </r>
       <r>     5.2210     0.0112   252.0006 </r>
       <r>     5.2744     1.2736   252.0685 </r>
       <r>     5.3277    18.8099   253.0712 </r>
       <r>     5.3810    40.6875   255.2402 </r>
       <r>     5.4343    13.5952   255.9650 </r>
       <r>     5.4876     0.6529   255.9998 </r>
       <r>     5.5409     0.0040   256.0000 </r>
       <r>     5.5942     0.0000   256.0000 </r>
       <r>     5.6475     0.0000   256.0000 </r>
       <r>     5.7008     0.0000   256.0000 </r>
       <r>     5.7541     0.0000   256.0000 </r>
       <r>     5.8074     0.0000   256.0000 </r>
       <r>     5.8608     0.0000   256.0000 </r>
       <r>     5.9141     0.0000   256.0000 </r>
       <r>     5.9674     0.0000   256.0000 </r>
       <r>     6.0207     0.0000   256.0000 </r>
       <r>     6.0740     0.0000   256.0000 </r>
       <r>     6.1273     0.0000   256.0000 </r>
       <r>     6.1806     0.0000   256.0000 </r>
       <r>     6.2339     0.0000   256.0000 </r>
       <r>     6.2872     0.0000   256.0000 </r>
       <r>     6.3405     0.0000   256.0000 </r>
       <r>     6.3938     0.0001   256.0000 </r>
       <r>     6.4472     0.0589   256.0031 </r>
       <r>     6.5005     4.2205   256.2281 </r>
       <r>     6.5538    39.9760   258.3592 </r>
       <r>     6.6071    56.0314   261.3462 </r>
       <r>     6.6604    11.9134   261.9813 </r>
       <r>     6.7137     0.3498   261.9999 </r>
       <r>     6.7670     0.0013   262.0000 </r>
       <r>     6.8203     0.0000   262.0000 </r>
       <r>     6.8736     0.0130   262.0007 </r>
       <r>     6.9269     1.6262   262.0874 </r>
       <r>     6.9802    26.2648   263.4875 </r>
       <r>     7.0336    61.4375   266.7627 </r>
       <r>     7.0869    22.0669   267.9391 </r>
       <r>     7.1402     1.2889   268.0078 </r>
       <r>     7.1935     4.6443   268.2554 </r>
       <r>     7.2468    19.3793   269.2885 </r>
       <r>     7.3001    12.2123   269.9395 </r>
       <r>     7.3534     1.1281   269.9996 </r>
       <r>     7.4067     1.0216   270.0541 </r>
       <r>     7.4600    20.8077   271.1633 </r>
       <r>     7.5133    61.4157   274.4373 </r>
       <r>     7.5666    35.1634   276.3118 </r>
       <r>     7.6200    50.9116   279.0259 </r>
       <r>     7.6733    48.6065   281.6171 </r>
       <r>     7.7266    16.5132   282.4974 </r>
       <r>     7.7799    77.8253   286.6461 </r>
       <r>     7.8332   109.8249   292.5008 </r>
       <r>     7.8865    27.0688   293.9438 </r>
       <r>     7.9398     2.2832   294.0655 </r>
       <r>     7.9931    32.1306   295.7784 </r>
       <r>     8.0464   124.0465   302.3912 </r>
       <r>     8.0997    87.9782   307.0812 </r>
       <r>     8.1530    16.3627   307.9535 </r>
       <r>     8.2063     1.5607   308.0367 </r>
       <r>     8.2597    17.2560   308.9566 </r>
       <r>     8.3130    60.1985   312.1657 </r>
       <r>     8.3663    31.9399   313.8684 </r>
       <r>     8.4196     4.5479   314.1108 </r>
       <r>     8.4729    41.8258   316.3405 </r>
       <r>     8.5262   131.8008   323.3667 </r>
       <r>     8.5795    77.2676   327.4857 </r>
       <r>     8.6328     9.4168   327.9877 </r>
       <r>     8.6861     0.2296   328.0000 </r>
       <r>     8.7394     0.0009   328.0000 </r>
       <r>     8.7927     0.0000   328.0000 </r>
       <r>     8.8461     0.0000   328.0000 </r>
       <r>     8.8994     0.0000   328.0000 </r>
       <r>     8.9527     0.0000   328.0000 </r>
       <r>     9.0060     0.0000   328.0000 </r>
       <r>     9.0593     0.0000   328.0000 </r>
       <r>     9.1126     0.0000   328.0000 </r>
       <r>     9.1659     0.0000   328.0000 </r>
       <r>     9.2192     0.0000   328.0000 </r>
       <r>     9.2725     0.0000   328.0000 </r>
      </set>
     </set>
    </array>
   </total>
  </dos>
 </calculation>
 <structure name="finalpos" >
  <crystal>
   <varray name="basis" >
    <v>      10.93252578       0.00000000       0.00000000 </v>
    <v>       0.00000000      10.93252578       0.00000000 </v>
    <v>       0.00000000       0.00000000      10.93252578 </v>
   </varray>
   <i name="volume">   1306.65679237 </i>
   <varray name="rec_basis" >
    <v>       0.09147017       0.00000000       0.00000000 </v>
    <v>       0.00000000       0.09147017       0.00000000 </v>
    <v>       0.00000000       0.00000000       0.09147017 </v>
   </varray>
  </crystal>
  <varray name="positions" >
   <v>       0.44024411       0.43750000       0.43750000 </v>
   <v>       0.93750000       0.43750000       0.43750000 </v>
   <v>       0.43750000       0.93750000       0.43750000 </v>
   <v>       0.93750000       0.93750000       0.43750000 </v>
   <v>       0.43750000       0.43750000       0.93750000 </v>
   <v>       0.93750000       0.43750000       0.93750000 </v>
   <v>       0.43750000       0.93750000       0.93750000 </v>
   <v>       0.93750000       0.93750000       0.93750000 </v>
   <v>       0.43750000       0.18750000       0.18750000 </v>
   <v>       0.93750000       0.18750000       0.18750000 </v>
   <v>       0.43750000       0.68750000       0.18750000 </v>
   <v>       0.93750000       0.68750000       0.18750000 </v>
   <v>       0.43750000       0.18750000       0.68750000 </v>
   <v>       0.93750000       0.18750000       0.68750000 </v>
   <v>       0.43750000       0.68750000       0.68750000 </v>
   <v>       0.93750000       0.68750000       0.68750000 </v>
   <v>       0.18750000       0.43750000       0.18750000 </v>
   <v>       0.68750000       0.43750000       0.18750000 </v>
   <v>       0.18750000       0.93750000       0.18750000 </v>
   <v>       0.68750000       0.93750000       0.18750000 </v>
   <v>       0.18750000       0.43750000       0.68750000 </v>
   <v>       0.68750000       0.43750000       0.68750000 </v>
   <v>       0.18750000       0.93750000       0.68750000 </v>
   <v>       0.68750000       0.93750000       0.68750000 </v>
   <v>       0.18750000       0.18750000       0.43750000 </v>
   <v>       0.68750000       0.18750000       0.43750000 </v>
   <v>       0.18750000       0.68750000       0.43750000 </v>
   <v>       0.68750000       0.68750000       0.43750000 </v>
   <v>       0.18750000       0.18750000       0.93750000 </v>
   <v>       0.68750000       0.18750000       0.93750000 </v>
   <v>       0.18750000       0.68750000       0.93750000 </v>
   <v>       0.68750000       0.68750000       0.93750000 </v>
   <v>       0.06250000       0.06250000       0.06250000 </v>
   <v>       0.56250000       0.06250000       0.06250000 </v>
   <v>       0.06250000       0.56250000       0.06250000 </v>
   <v>       0.56250000       0.56250000       0.06250000 </v>
   <v>       0.06250000       0.06250000       0.56250000 </v>
   <v>       0.56250000       0.06250000       0.56250000 </v>
   <v>       0.06250000       0.56250000       0.56250000 </v>
   <v>       0.56250000       0.56250000       0.56250000 </v>
   <v>       0.06250000       0.31250000       0.31250000 </v>
   <v>       0.56250000       0.31250000       0.31250000 </v>
   <v>       0.06250000       0.81250000       0.31250000 </v>
   <v>       0.56250000       0.81250000       0.31250000 </v>
   <v>       0.06250000       0.31250000       0.81250000 </v>
   <v>       0.56250000       0.31250000       0.81250000 </v>
   <v>       0.06250000       0.81250000       0.81250000 </v>
   <v>       0.56250000       0.81250000       0.81250000 </v>
   <v>       0.31250000       0.06250000       0.31250000 </v>
   <v>       0.81250000       0.06250000       0.31250000 </v>
   <v>       0.31250000       0.56250000       0.31250000 </v>
   <v>       0.81250000       0.56250000       0.31250000 </v>
   <v>       0.31250000       0.06524411       0.81250000 </v>
   <v>       0.81250000       0.06250000       0.81250000 </v>
   <v>       0.31250000       0.56250000       0.81250000 </v>
   <v>       0.81250000       0.56250000       0.81250000 </v>
   <v>       0.31250000       0.31250000       0.06250000 </v>
   <v>       0.81250000       0.31250000       0.06250000 </v>
   <v>       0.31250000       0.81250000       0.06250000 </v>
   <v>       0.81250000       0.81250000       0.06250000 </v>
   <v>       0.31250000       0.31250000       0.56250000 </v>
   <v>       0.81250000       0.31250000       0.56250000 </v>
   <v>       0.31250000       0.81250000       0.56250000 </v>
   <v>       0.81250000       0.81250000       0.56250000 </v>
  </varray>
 </structure>
</modeling>
