<?xml version="1.0" encoding="ISO-8859-1"?>
<modeling>
 <generator>
  <i name="program" type="string">vasp </i>
  <i name="version" type="string">5.4.1  </i>
  <i name="subversion" type="string">05Feb16 (build Mar 26 2016 11:58:25) complex                          parallel </i>
  <i name="platform" type="string">IFC91_ompi </i>
  <i name="date" type="string">2017 03 12 </i>
  <i name="time" type="string">12:13:57 </i>
 </generator>
 <incar>
  <i type="string" name="PREC">accurate</i>
  <i type="int" name="IALGO">    38</i>
  <i type="logical" name="ADDGRID"> T  </i>
  <i type="int" name="NELMIN">     5</i>
  <i type="int" name="IBRION">    -1</i>
  <i name="EDIFF">      0.00000001</i>
  <i name="ENCUT">    300.00000000</i>
  <i type="logical" name="LREAL"> F  </i>
  <i type="int" name="ISMEAR">     0</i>
  <i name="SIGMA">      0.05000000</i>
  <i type="logical" name="LWAVE"> F  </i>
  <i type="logical" name="LCHARG"> F  </i>
  <v type="int" name="KPOINT_BSE">    -1     0     0     0</v>
 </incar>
 <kpoints>
  <generation param="Monkhorst-Pack">
   <v type="int" name="divisions">       2        2        2 </v>
   <v name="usershift">      0.00000000       0.00000000       0.00000000 </v>
   <v name="genvec1">      0.50000000       0.00000000       0.00000000 </v>
   <v name="genvec2">      0.00000000       0.50000000       0.00000000 </v>
   <v name="genvec3">      0.00000000       0.00000000       0.50000000 </v>
   <v name="shift">      0.50000000       0.50000000       0.50000000 </v>
  </generation>
  <varray name="kpointlist" >
   <v>       0.25000000       0.25000000       0.25000000 </v>
   <v>      -0.25000000       0.25000000       0.25000000 </v>
   <v>       0.25000000      -0.25000000       0.25000000 </v>
   <v>      -0.25000000      -0.25000000       0.25000000 </v>
  </varray>
  <varray name="weights" >
   <v>       0.25000000 </v>
   <v>       0.25000000 </v>
   <v>       0.25000000 </v>
   <v>       0.25000000 </v>
  </varray>
 </kpoints>
 <parameters>
  <separator name="general" >
   <i type="string" name="SYSTEM">unknown system</i>
   <i type="logical" name="LCOMPAT"> F  </i>
  </separator>
  <separator name="electronic" >
   <i type="string" name="PREC">accura</i>
   <i name="ENMAX">    300.00000000</i>
   <i name="ENAUG">    322.06900000</i>
   <i name="EDIFF">      0.00000001</i>
   <i type="int" name="IALGO">    38</i>
   <i type="int" name="IWAVPR">    10</i>
   <i type="int" name="NBANDS">   164</i>
   <i name="NELECT">    256.00000000</i>
   <i type="int" name="TURBO">     0</i>
   <i type="int" name="IRESTART">     0</i>
   <i type="int" name="NREBOOT">     0</i>
   <i type="int" name="NMIN">     0</i>
   <i name="EREF">      0.00000000</i>
   <separator name="electronic smearing" >
    <i type="int" name="ISMEAR">     0</i>
    <i name="SIGMA">      0.05000000</i>
    <i name="KSPACING">      0.50000000</i>
    <i type="logical" name="KGAMMA"> T  </i>
   </separator>
   <separator name="electronic projectors" >
    <i type="logical" name="LREAL"> F  </i>
    <v name="ROPT">      0.00000000</v>
    <i type="int" name="LMAXPAW">  -100</i>
    <i type="int" name="LMAXMIX">     2</i>
    <i type="logical" name="NLSPLINE"> F  </i>
   </separator>
   <separator name="electronic startup" >
    <i type="int" name="ISTART">     0</i>
    <i type="int" name="ICHARG">     2</i>
    <i type="int" name="INIWAV">     1</i>
   </separator>
   <separator name="electronic spin" >
    <i type="int" name="ISPIN">     1</i>
    <i type="logical" name="LNONCOLLINEAR"> F  </i>
    <v name="MAGMOM">      1.00000000      1.00000000      1.00000000      1.00000000      1.00000000      1.00000000      1.00000000      1.00000000      1.00000000      1.00000000      1.00000000      1.00000000      1.00000000      1.00000000      1.00000000      1.00000000      1.00000000      1.00000000      1.00000000      1.00000000
      1.00000000      1.00000000      1.00000000      1.00000000      1.00000000      1.00000000      1.00000000      1.00000000      1.00000000      1.00000000      1.00000000      1.00000000      1.00000000      1.00000000      1.00000000      1.00000000      1.00000000      1.00000000      1.00000000      1.00000000
      1.00000000      1.00000000      1.00000000      1.00000000      1.00000000      1.00000000      1.00000000      1.00000000      1.00000000      1.00000000      1.00000000      1.00000000      1.00000000      1.00000000      1.00000000      1.00000000      1.00000000      1.00000000      1.00000000      1.00000000
      1.00000000      1.00000000      1.00000000      1.00000000</v>
    <i name="NUPDOWN">     -1.00000000</i>
    <i type="logical" name="LSORBIT"> F  </i>
    <v name="SAXIS">      0.00000000      0.00000000      1.00000000</v>
    <i type="logical" name="LSPIRAL"> F  </i>
    <v name="QSPIRAL">      0.00000000      0.00000000      0.00000000</v>
    <i type="logical" name="LZEROZ"> F  </i>
   </separator>
   <separator name="electronic exchange-correlation" >
    <i type="logical" name="LASPH"> F  </i>
    <i type="logical" name="LMETAGGA"> F  </i>
   </separator>
   <separator name="electronic convergence" >
    <i type="int" name="NELM">    60</i>
    <i type="int" name="NELMDL">    -5</i>
    <i type="int" name="NELMIN">     5</i>
    <i name="ENINI">    300.00000000</i>
    <separator name="electronic convergence detail" >
     <i type="logical" name="LDIAG"> T  </i>
     <i type="logical" name="LSUBROT"> F  </i>
     <i name="WEIMIN">      0.00000000</i>
     <i name="EBREAK">      0.00000000</i>
     <i name="DEPER">      0.30000000</i>
     <i type="int" name="NRMM">     4</i>
     <i name="TIME">      0.40000000</i>
    </separator>
   </separator>
   <separator name="electronic mixer" >
    <i name="AMIX">      0.40000000</i>
    <i name="BMIX">      1.00000000</i>
    <i name="AMIN">      0.10000000</i>
    <i name="AMIX_MAG">      1.60000000</i>
    <i name="BMIX_MAG">      1.00000000</i>
    <separator name="electronic mixer details" >
     <i type="int" name="IMIX">     4</i>
     <i type="logical" name="MIXFIRST"> F  </i>
     <i type="int" name="MAXMIX">   -45</i>
     <i name="WC">    100.00000000</i>
     <i type="int" name="INIMIX">     1</i>
     <i type="int" name="MIXPRE">     1</i>
     <i type="int" name="MREMOVE">     5</i>
    </separator>
   </separator>
   <separator name="electronic dipolcorrection" >
    <i type="logical" name="LDIPOL"> F  </i>
    <i type="logical" name="LMONO"> F  </i>
    <i type="int" name="IDIPOL">     0</i>
    <i name="EPSILON">      1.00000000</i>
    <v name="DIPOL">   -100.00000000   -100.00000000   -100.00000000</v>
    <i name="EFIELD">      0.00000000</i>
   </separator>
  </separator>
  <separator name="grids" >
   <i type="int" name="NGX">    64</i>
   <i type="int" name="NGY">    64</i>
   <i type="int" name="NGZ">    64</i>
   <i type="int" name="NGXF">   128</i>
   <i type="int" name="NGYF">   128</i>
   <i type="int" name="NGZF">   128</i>
   <i type="logical" name="ADDGRID"> T  </i>
  </separator>
  <separator name="ionic" >
   <i type="int" name="NSW">     0</i>
   <i type="int" name="IBRION">    -1</i>
   <i type="int" name="ISIF">     2</i>
   <i name="PSTRESS">      0.00000000</i>
   <i name="EDIFFG">      0.00000010</i>
   <i type="int" name="NFREE">     0</i>
   <i name="POTIM">      0.50000000</i>
   <i name="SMASS">     -3.00000000</i>
   <i name="SCALEE">      1.00000000</i>
  </separator>
  <separator name="ionic md" >
   <i name="TEBEG">      0.00010000</i>
   <i name="TEEND">      0.00010000</i>
   <i type="int" name="NBLOCK">     1</i>
   <i type="int" name="KBLOCK">     1</i>
   <i type="int" name="NPACO">   256</i>
   <i name="APACO">     16.00000000</i>
  </separator>
  <separator name="symmetry" >
   <i type="int" name="ISYM">     2</i>
   <i name="SYMPREC">      0.00001000</i>
  </separator>
  <separator name="dos" >
   <i type="logical" name="LORBIT"> F  </i>
   <v name="RWIGS">     -1.00000000</v>
   <i type="int" name="NEDOS">   301</i>
   <i name="EMIN">     10.00000000</i>
   <i name="EMAX">    -10.00000000</i>
   <i name="EFERMI">      0.00000000</i>
  </separator>
  <separator name="writing" >
   <i type="int" name="NWRITE">     2</i>
   <i type="logical" name="LWAVE"> F  </i>
   <i type="logical" name="LCHARG"> F  </i>
   <i type="logical" name="LPARD"> F  </i>
   <i type="logical" name="LVTOT"> F  </i>
   <i type="logical" name="LVHAR"> F  </i>
   <i type="logical" name="LELF"> F  </i>
   <i type="logical" name="LOPTICS"> F  </i>
   <v name="STM">      0.00000000      0.00000000      0.00000000      0.00000000      0.00000000      0.00000000      0.00000000</v>
  </separator>
  <separator name="performance" >
   <i type="int" name="NPAR">     4</i>
   <i type="int" name="NSIM">     4</i>
   <i type="int" name="NBLK">    -1</i>
   <i type="logical" name="LPLANE"> T  </i>
   <i type="logical" name="LSCALAPACK"> T  </i>
   <i type="logical" name="LSCAAWARE"> F  </i>
   <i type="logical" name="LSCALU"> F  </i>
   <i type="logical" name="LASYNC"> F  </i>
   <i type="logical" name="LORBITALREAL"> F  </i>
  </separator>
  <separator name="miscellaneous" >
   <i type="int" name="IDIOT">     3</i>
   <i type="logical" name="LMUSIC"> F  </i>
   <v name="POMASS">     28.08500000</v>
   <v name="DARWINR">      0.00000000</v>
   <v name="DARWINV">      1.00000000</v>
   <i type="logical" name="LCORR"> T  </i>
  </separator>
  <i type="logical" name="GGA_COMPAT"> T  </i>
  <i type="logical" name="LBERRY"> F  </i>
  <i type="int" name="ICORELEVEL">     0</i>
  <i type="logical" name="LDAU"> F  </i>
  <i type="int" name="I_CONSTRAINED_M">     0</i>
  <separator name="electronic exchange-correlation" >
   <i type="string" name="GGA">--</i>
   <i type="int" name="VOSKOWN">     0</i>
   <i type="logical" name="LHFCALC"> F  </i>
   <i type="string" name="PRECFOCK"></i>
   <i type="logical" name="LSYMGRAD"> F  </i>
   <i type="logical" name="LHFONE"> F  </i>
   <i type="logical" name="LRHFCALC"> F  </i>
   <i type="logical" name="LTHOMAS"> F  </i>
   <i type="logical" name="LMODELHF"> F  </i>
   <i name="ENCUT4O">     -1.00000000</i>
   <i type="int" name="EXXOEP">     0</i>
   <i type="int" name="FOURORBIT">     0</i>
   <i name="AEXX">      0.00000000</i>
   <i name="HFALPHA">      0.00000000</i>
   <i name="MCALPHA">      0.00000000</i>
   <i name="ALDAX">      1.00000000</i>
   <i name="AGGAX">      1.00000000</i>
   <i name="ALDAC">      1.00000000</i>
   <i name="AGGAC">      1.00000000</i>
   <i type="int" name="NKREDX">     1</i>
   <i type="int" name="NKREDY">     1</i>
   <i type="int" name="NKREDZ">     1</i>
   <i type="logical" name="SHIFTRED"> F  </i>
   <i type="logical" name="ODDONLY"> F  </i>
   <i type="logical" name="EVENONLY"> F  </i>
   <i type="int" name="LMAXFOCK">     0</i>
   <i type="int" name="NMAXFOCKAE">     0</i>
   <i type="logical" name="LFOCKAEDFT"> F  </i>
   <i name="HFSCREEN">      0.00000000</i>
   <i name="HFSCREENC">      0.00000000</i>
   <i type="int" name="NBANDSGWLOW">     0</i>
  </separator>
  <separator name="vdW DFT" >
   <i type="logical" name="LUSE_VDW"> F  </i>
   <i name="Zab_VDW">     -0.84910000</i>
   <i name="PARAM1">      0.12340000</i>
   <i name="PARAM2">      1.00000000</i>
   <i name="PARAM3">      0.00000000</i>
  </separator>
  <separator name="model GW" >
   <i type="int" name="MODEL_GW">     0</i>
   <i name="MODEL_EPS0">     12.24990743</i>
   <i name="MODEL_ALPHA">      1.00000000</i>
  </separator>
  <separator name="linear response parameters" >
   <i type="logical" name="LEPSILON"> F  </i>
   <i type="logical" name="LRPA"> F  </i>
   <i type="logical" name="LNABLA"> F  </i>
   <i type="logical" name="LVEL"> F  </i>
   <i type="int" name="KINTER">     0</i>
   <i name="CSHIFT">      0.10000000</i>
   <i name="OMEGAMAX">     -1.00000000</i>
   <i name="DEG_THRESHOLD">      0.00200000</i>
  </separator>
  <separator name="orbital magnetization" >
   <i type="logical" name="NUCIND"> F  </i>
   <v name="MAGPOS">      0.00000000      0.00000000      0.00000000</v>
   <i type="logical" name="LNICSALL"> T  </i>
   <i type="logical" name="ORBITALMAG"> F  </i>
   <i type="logical" name="LMAGBLOCH"> F  </i>
   <i type="logical" name="LCHIMAG"> F  </i>
   <i type="logical" name="LGAUGE"> T  </i>
   <i type="int" name="MAGATOM">     0</i>
   <v name="MAGDIPOL">      0.00000000      0.00000000      0.00000000</v>
   <v name="AVECCONST">      0.00000000      0.00000000      0.00000000</v>
  </separator>
  <separator name="response functions" >
   <i type="logical" name="LADDER"> F  </i>
   <i type="logical" name="LFXC"> F  </i>
   <i type="logical" name="LHARTREE"> T  </i>
   <i type="int" name="IBSE">     0</i>
   <v type="int" name="KPOINT">    -1     0     0     0</v>
   <i type="logical" name="LTCTE"> F  </i>
   <i type="logical" name="LTETE"> F  </i>
   <i type="logical" name="LTRIPLET"> F  </i>
   <i type="logical" name="LFXCEPS"> F  </i>
   <i type="logical" name="LFXHEG"> F  </i>
   <i type="int" name="NATURALO">     0</i>
   <i type="logical" name="L2ORDER"> F  </i>
   <i type="logical" name="LUSEW"> F  </i>
   <i name="ENCUTGW">     -2.00000000</i>
   <i name="ENCUTGWSOFT">     -2.00000000</i>
   <i name="ENCUTLF">     -1.00000000</i>
   <i type="int" name="LMAXMP2">    -1</i>
   <i name="SCISSOR">      0.00000000</i>
   <i type="int" name="NOMEGA">     0</i>
   <i type="int" name="NOMEGAR">     0</i>
   <i type="int" name="NBANDSGW">    -1</i>
   <i type="int" name="NBANDSO">    -1</i>
   <i type="int" name="NBANDSV">    -1</i>
   <i type="int" name="NELM">     1</i>
   <i type="int" name="NELMHF">     1</i>
   <i type="int" name="DIM">     3</i>
   <i type="int" name="ANTIRES">     0</i>
   <i name="OMEGAMAX">    -30.00000000</i>
   <i name="OMEGAMIN">    -30.00000000</i>
   <i name="OMEGATL">   -200.00000000</i>
   <i type="int" name="OMEGAGRID">     0</i>
   <i name="CSHIFT">     -0.10000000</i>
   <i type="logical" name="SELFENERGY"> F  </i>
   <i type="logical" name="LSPECTRAL"> F  </i>
   <i type="logical" name="LSPECTRALGW"> F  </i>
   <i type="logical" name="LSINGLES"> F  </i>
   <i type="logical" name="LFERMIGW"> F  </i>
   <i type="logical" name="ODDONLYGW"> F  </i>
   <i type="logical" name="EVENONLYGW"> F  </i>
   <i type="int" name="NKREDLFX">     1</i>
   <i type="int" name="NKREDLFY">     1</i>
   <i type="int" name="NKREDLFZ">     1</i>
   <i type="int" name="MAXMEM">  1800</i>
   <i type="int" name="TELESCOPE">     0</i>
   <i type="int" name="TAUPAR">     1</i>
   <i type="int" name="OMEGAPAR">    -1</i>
   <i name="LAMBDA">      1.00000000</i>
  </separator>
  <separator name="External order field" >
   <i name="OFIELD_KAPPA">      0.00000000</i>
   <v name="OFIELD_K">      0.00000000      0.00000000      0.00000000</v>
   <i name="OFIELD_Q6_NEAR">      0.00000000</i>
   <i name="OFIELD_Q6_FAR">      0.00000000</i>
   <i name="OFIELD_A">      0.00000000</i>
  </separator>
 </parameters>
 <atominfo>
  <atoms>      64 </atoms>
  <types>       1 </types>
  <array name="atoms" >
   <dimension dim="1">ion</dimension>
   <field type="string">element</field>
   <field type="int">atomtype</field>
   <set>
    <rc><c>Si</c><c>   1</c></rc>
    <rc><c>Si</c><c>   1</c></rc>
    <rc><c>Si</c><c>   1</c></rc>
    <rc><c>Si</c><c>   1</c></rc>
    <rc><c>Si</c><c>   1</c></rc>
    <rc><c>Si</c><c>   1</c></rc>
    <rc><c>Si</c><c>   1</c></rc>
    <rc><c>Si</c><c>   1</c></rc>
    <rc><c>Si</c><c>   1</c></rc>
    <rc><c>Si</c><c>   1</c></rc>
    <rc><c>Si</c><c>   1</c></rc>
    <rc><c>Si</c><c>   1</c></rc>
    <rc><c>Si</c><c>   1</c></rc>
    <rc><c>Si</c><c>   1</c></rc>
    <rc><c>Si</c><c>   1</c></rc>
    <rc><c>Si</c><c>   1</c></rc>
    <rc><c>Si</c><c>   1</c></rc>
    <rc><c>Si</c><c>   1</c></rc>
    <rc><c>Si</c><c>   1</c></rc>
    <rc><c>Si</c><c>   1</c></rc>
    <rc><c>Si</c><c>   1</c></rc>
    <rc><c>Si</c><c>   1</c></rc>
    <rc><c>Si</c><c>   1</c></rc>
    <rc><c>Si</c><c>   1</c></rc>
    <rc><c>Si</c><c>   1</c></rc>
    <rc><c>Si</c><c>   1</c></rc>
    <rc><c>Si</c><c>   1</c></rc>
    <rc><c>Si</c><c>   1</c></rc>
    <rc><c>Si</c><c>   1</c></rc>
    <rc><c>Si</c><c>   1</c></rc>
    <rc><c>Si</c><c>   1</c></rc>
    <rc><c>Si</c><c>   1</c></rc>
    <rc><c>Si</c><c>   1</c></rc>
    <rc><c>Si</c><c>   1</c></rc>
    <rc><c>Si</c><c>   1</c></rc>
    <rc><c>Si</c><c>   1</c></rc>
    <rc><c>Si</c><c>   1</c></rc>
    <rc><c>Si</c><c>   1</c></rc>
    <rc><c>Si</c><c>   1</c></rc>
    <rc><c>Si</c><c>   1</c></rc>
    <rc><c>Si</c><c>   1</c></rc>
    <rc><c>Si</c><c>   1</c></rc>
    <rc><c>Si</c><c>   1</c></rc>
    <rc><c>Si</c><c>   1</c></rc>
    <rc><c>Si</c><c>   1</c></rc>
    <rc><c>Si</c><c>   1</c></rc>
    <rc><c>Si</c><c>   1</c></rc>
    <rc><c>Si</c><c>   1</c></rc>
    <rc><c>Si</c><c>   1</c></rc>
    <rc><c>Si</c><c>   1</c></rc>
    <rc><c>Si</c><c>   1</c></rc>
    <rc><c>Si</c><c>   1</c></rc>
    <rc><c>Si</c><c>   1</c></rc>
    <rc><c>Si</c><c>   1</c></rc>
    <rc><c>Si</c><c>   1</c></rc>
    <rc><c>Si</c><c>   1</c></rc>
    <rc><c>Si</c><c>   1</c></rc>
    <rc><c>Si</c><c>   1</c></rc>
    <rc><c>Si</c><c>   1</c></rc>
    <rc><c>Si</c><c>   1</c></rc>
    <rc><c>Si</c><c>   1</c></rc>
    <rc><c>Si</c><c>   1</c></rc>
    <rc><c>Si</c><c>   1</c></rc>
    <rc><c>Si</c><c>   1</c></rc>
   </set>
  </array>
  <array name="atomtypes" >
   <dimension dim="1">type</dimension>
   <field type="int">atomspertype</field>
   <field type="string">element</field>
   <field>mass</field>
   <field>valence</field>
   <field type="string">pseudopotential</field>
   <set>
    <rc><c>  64</c><c>Si</c><c>     28.08500000</c><c>      4.00000000</c><c>  PAW_PBE Si 05Jan2001                  </c></rc>
   </set>
  </array>
 </atominfo>
 <structure name="initialpos" >
  <crystal>
   <varray name="basis" >
    <v>      10.93252578       0.00000000       0.00000000 </v>
    <v>       0.00000000      10.93252578       0.00000000 </v>
    <v>       0.00000000       0.00000000      10.93252578 </v>
   </varray>
   <i name="volume">   1306.65679237 </i>
   <varray name="rec_basis" >
    <v>       0.09147017       0.00000000       0.00000000 </v>
    <v>       0.00000000       0.09147017       0.00000000 </v>
    <v>       0.00000000       0.00000000       0.09147017 </v>
   </varray>
  </crystal>
  <varray name="positions" >
   <v>       0.44024411       0.43750000       0.43750000 </v>
   <v>       0.93555962       0.43555962       0.43750000 </v>
   <v>       0.43750000       0.93750000       0.43750000 </v>
   <v>       0.93750000       0.93750000       0.43750000 </v>
   <v>       0.43750000       0.43750000       0.93750000 </v>
   <v>       0.93750000       0.43750000       0.93750000 </v>
   <v>       0.43750000       0.93750000       0.93750000 </v>
   <v>       0.93750000       0.93750000       0.93750000 </v>
   <v>       0.43750000       0.18750000       0.18750000 </v>
   <v>       0.93750000       0.18750000       0.18750000 </v>
   <v>       0.43750000       0.68750000       0.18750000 </v>
   <v>       0.93750000       0.68750000       0.18750000 </v>
   <v>       0.43750000       0.18750000       0.68750000 </v>
   <v>       0.93750000       0.18750000       0.68750000 </v>
   <v>       0.43750000       0.68750000       0.68750000 </v>
   <v>       0.93750000       0.68750000       0.68750000 </v>
   <v>       0.18750000       0.43750000       0.18750000 </v>
   <v>       0.68750000       0.43750000       0.18750000 </v>
   <v>       0.18750000       0.93750000       0.18750000 </v>
   <v>       0.68750000       0.93750000       0.18750000 </v>
   <v>       0.18750000       0.43750000       0.68750000 </v>
   <v>       0.68750000       0.43750000       0.68750000 </v>
   <v>       0.18750000       0.93750000       0.68750000 </v>
   <v>       0.68750000       0.93750000       0.68750000 </v>
   <v>       0.18750000       0.18750000       0.43750000 </v>
   <v>       0.68750000       0.18750000       0.43750000 </v>
   <v>       0.18750000       0.68750000       0.43750000 </v>
   <v>       0.68750000       0.68750000       0.43750000 </v>
   <v>       0.18750000       0.18750000       0.93750000 </v>
   <v>       0.68750000       0.18750000       0.93750000 </v>
   <v>       0.18750000       0.68750000       0.93750000 </v>
   <v>       0.68750000       0.68750000       0.93750000 </v>
   <v>       0.06250000       0.06250000       0.06250000 </v>
   <v>       0.56250000       0.06250000       0.06250000 </v>
   <v>       0.06250000       0.56250000       0.06250000 </v>
   <v>       0.56250000       0.56250000       0.06250000 </v>
   <v>       0.06250000       0.06250000       0.56250000 </v>
   <v>       0.56250000       0.06250000       0.56250000 </v>
   <v>       0.06250000       0.56250000       0.56250000 </v>
   <v>       0.56250000       0.56250000       0.56250000 </v>
   <v>       0.06250000       0.31250000       0.31250000 </v>
   <v>       0.56250000       0.31250000       0.31250000 </v>
   <v>       0.06250000       0.81250000       0.31250000 </v>
   <v>       0.56250000       0.81250000       0.31250000 </v>
   <v>       0.06250000       0.31250000       0.81250000 </v>
   <v>       0.56250000       0.31250000       0.81250000 </v>
   <v>       0.06250000       0.81250000       0.81250000 </v>
   <v>       0.56250000       0.81250000       0.81250000 </v>
   <v>       0.31250000       0.06250000       0.31250000 </v>
   <v>       0.81250000       0.06250000       0.31250000 </v>
   <v>       0.31250000       0.56250000       0.31250000 </v>
   <v>       0.81250000       0.56250000       0.31250000 </v>
   <v>       0.31250000       0.06250000       0.81250000 </v>
   <v>       0.81250000       0.06250000       0.81250000 </v>
   <v>       0.31250000       0.56250000       0.81250000 </v>
   <v>       0.81250000       0.56250000       0.81250000 </v>
   <v>       0.31250000       0.31250000       0.06250000 </v>
   <v>       0.81250000       0.31250000       0.06250000 </v>
   <v>       0.31250000       0.81250000       0.06250000 </v>
   <v>       0.81250000       0.81250000       0.06250000 </v>
   <v>       0.31250000       0.31250000       0.56250000 </v>
   <v>       0.81250000       0.31250000       0.56250000 </v>
   <v>       0.31250000       0.81250000       0.56250000 </v>
   <v>       0.81250000       0.81250000       0.56250000 </v>
  </varray>
 </structure>
 <calculation>
  <scstep>
   <time name="dav">    5.48    5.49</time>
   <time name="total">    5.75    5.77</time>
   <energy>
    <i name="alphaZ">    105.52440745 </i>
    <i name="ewald">  -7265.46738710 </i>
    <i name="hartreedc">   -361.71622906 </i>
    <i name="XCdc">   -597.75713771 </i>
    <i name="pawpsdc">   5639.92317535 </i>
    <i name="pawaedc">  -4513.95313856 </i>
    <i name="eentropy">     -0.00120345 </i>
    <i name="bandstr">    856.87162173 </i>
    <i name="atom">   6596.14994790 </i>
    <i name="e_fr_energy">    459.57405657 </i>
    <i name="e_wo_entrp">    459.57526002 </i>
    <i name="e_0_energy">    459.57465829 </i>
   </energy>
  </scstep>
  <scstep>
   <time name="dav">    6.29    6.30</time>
   <time name="total">    6.30    6.34</time>
   <energy>
    <i name="e_fr_energy">   -300.07860813 </i>
    <i name="e_wo_entrp">   -300.07860813 </i>
    <i name="e_0_energy">   -300.07860813 </i>
   </energy>
  </scstep>
  <scstep>
   <time name="dav">    6.38    6.38</time>
   <time name="total">    6.38    6.39</time>
   <energy>
    <i name="e_fr_energy">   -351.03310478 </i>
    <i name="e_wo_entrp">   -351.03310478 </i>
    <i name="e_0_energy">   -351.03310478 </i>
   </energy>
  </scstep>
  <scstep>
   <time name="dav">    6.30    6.31</time>
   <time name="total">    6.30    6.31</time>
   <energy>
    <i name="e_fr_energy">   -352.26760531 </i>
    <i name="e_wo_entrp">   -352.26760531 </i>
    <i name="e_0_energy">   -352.26760531 </i>
   </energy>
  </scstep>
  <scstep>
   <time name="dav">    6.37    6.38</time>
   <time name="total">    6.67    6.68</time>
   <energy>
    <i name="e_fr_energy">   -352.31358079 </i>
    <i name="e_wo_entrp">   -352.31358079 </i>
    <i name="e_0_energy">   -352.31358079 </i>
   </energy>
  </scstep>
  <scstep>
   <time name="dav">    6.17    6.17</time>
   <time name="total">    6.73    6.75</time>
   <energy>
    <i name="e_fr_energy">   -348.58456786 </i>
    <i name="e_wo_entrp">   -348.58456786 </i>
    <i name="e_0_energy">   -348.58456786 </i>
   </energy>
  </scstep>
  <scstep>
   <time name="dav">    6.11    6.12</time>
   <time name="total">    6.68    6.68</time>
   <energy>
    <i name="e_fr_energy">   -346.87176690 </i>
    <i name="e_wo_entrp">   -346.87176690 </i>
    <i name="e_0_energy">   -346.87176690 </i>
   </energy>
  </scstep>
  <scstep>
   <time name="dav">    6.24    6.24</time>
   <time name="total">    6.80    6.81</time>
   <energy>
    <i name="e_fr_energy">   -346.89815797 </i>
    <i name="e_wo_entrp">   -346.89815797 </i>
    <i name="e_0_energy">   -346.89815797 </i>
   </energy>
  </scstep>
  <scstep>
   <time name="dav">    6.43    6.44</time>
   <time name="total">    7.00    7.01</time>
   <energy>
    <i name="e_fr_energy">   -346.90484688 </i>
    <i name="e_wo_entrp">   -346.90484688 </i>
    <i name="e_0_energy">   -346.90484688 </i>
   </energy>
  </scstep>
  <scstep>
   <time name="dav">    6.01    6.01</time>
   <time name="total">    6.57    6.58</time>
   <energy>
    <i name="e_fr_energy">   -346.90690807 </i>
    <i name="e_wo_entrp">   -346.90690807 </i>
    <i name="e_0_energy">   -346.90690807 </i>
   </energy>
  </scstep>
  <scstep>
   <time name="dav">    6.35    6.36</time>
   <time name="total">    6.92    6.94</time>
   <energy>
    <i name="e_fr_energy">   -346.90688314 </i>
    <i name="e_wo_entrp">   -346.90688314 </i>
    <i name="e_0_energy">   -346.90688314 </i>
   </energy>
  </scstep>
  <scstep>
   <time name="dav">    6.19    6.20</time>
   <time name="total">    6.75    6.76</time>
   <energy>
    <i name="e_fr_energy">   -346.90689800 </i>
    <i name="e_wo_entrp">   -346.90689800 </i>
    <i name="e_0_energy">   -346.90689800 </i>
   </energy>
  </scstep>
  <scstep>
   <time name="dav">    6.16    6.16</time>
   <time name="total">    6.72    6.74</time>
   <energy>
    <i name="e_fr_energy">   -346.90689860 </i>
    <i name="e_wo_entrp">   -346.90689860 </i>
    <i name="e_0_energy">   -346.90689860 </i>
   </energy>
  </scstep>
  <scstep>
   <time name="dav">    6.43    6.44</time>
   <time name="total">    6.99    7.01</time>
   <energy>
    <i name="e_fr_energy">   -346.90689918 </i>
    <i name="e_wo_entrp">   -346.90689918 </i>
    <i name="e_0_energy">   -346.90689918 </i>
   </energy>
  </scstep>
  <scstep>
   <time name="dav">    5.05    5.06</time>
   <time name="total">    5.62    5.63</time>
   <energy>
    <i name="e_fr_energy">   -346.90689896 </i>
    <i name="e_wo_entrp">   -346.90689896 </i>
    <i name="e_0_energy">   -346.90689896 </i>
   </energy>
  </scstep>
  <scstep>
   <time name="dav">    4.29    4.29</time>
   <time name="total">    4.85    4.86</time>
   <energy>
    <i name="e_fr_energy">   -346.90689902 </i>
    <i name="e_wo_entrp">   -346.90689902 </i>
    <i name="e_0_energy">   -346.90689902 </i>
   </energy>
  </scstep>
  <scstep>
   <time name="dav">    4.24    4.24</time>
   <time name="total">    4.80    4.84</time>
   <energy>
    <i name="e_fr_energy">   -346.90689900 </i>
    <i name="e_wo_entrp">   -346.90689900 </i>
    <i name="e_0_energy">   -346.90689900 </i>
   </energy>
  </scstep>
  <scstep>
   <time name="dav">    4.23    4.24</time>
   <time name="total">    4.49    4.57</time>
   <energy>
    <i name="alphaZ">    105.52440745 </i>
    <i name="ewald">  -7265.46738710 </i>
    <i name="hartreedc">   -485.14710985 </i>
    <i name="XCdc">   -577.61228498 </i>
    <i name="pawpsdc">  27883.40025606 </i>
    <i name="pawaedc"> -26764.11817651 </i>
    <i name="eentropy">      0.00000000 </i>
    <i name="bandstr">    160.36344802 </i>
    <i name="atom">   6596.14994790 </i>
    <i name="e_fr_energy">   -346.90689901 </i>
    <i name="e_wo_entrp">   -346.90689901 </i>
    <i name="e_0_energy">   -346.90689901 </i>
   </energy>
  </scstep>
  <structure>
   <crystal>
    <varray name="basis" >
     <v>      10.93252578       0.00000000       0.00000000 </v>
     <v>       0.00000000      10.93252578       0.00000000 </v>
     <v>       0.00000000       0.00000000      10.93252578 </v>
    </varray>
    <i name="volume">   1306.65679237 </i>
    <varray name="rec_basis" >
     <v>       0.09147017       0.00000000       0.00000000 </v>
     <v>       0.00000000       0.09147017       0.00000000 </v>
     <v>       0.00000000       0.00000000       0.09147017 </v>
    </varray>
   </crystal>
   <varray name="positions" >
    <v>       0.44024411       0.43750000       0.43750000 </v>
    <v>       0.93555962       0.43555962       0.43750000 </v>
    <v>       0.43750000       0.93750000       0.43750000 </v>
    <v>       0.93750000       0.93750000       0.43750000 </v>
    <v>       0.43750000       0.43750000       0.93750000 </v>
    <v>       0.93750000       0.43750000       0.93750000 </v>
    <v>       0.43750000       0.93750000       0.93750000 </v>
    <v>       0.93750000       0.93750000       0.93750000 </v>
    <v>       0.43750000       0.18750000       0.18750000 </v>
    <v>       0.93750000       0.18750000       0.18750000 </v>
    <v>       0.43750000       0.68750000       0.18750000 </v>
    <v>       0.93750000       0.68750000       0.18750000 </v>
    <v>       0.43750000       0.18750000       0.68750000 </v>
    <v>       0.93750000       0.18750000       0.68750000 </v>
    <v>       0.43750000       0.68750000       0.68750000 </v>
    <v>       0.93750000       0.68750000       0.68750000 </v>
    <v>       0.18750000       0.43750000       0.18750000 </v>
    <v>       0.68750000       0.43750000       0.18750000 </v>
    <v>       0.18750000       0.93750000       0.18750000 </v>
    <v>       0.68750000       0.93750000       0.18750000 </v>
    <v>       0.18750000       0.43750000       0.68750000 </v>
    <v>       0.68750000       0.43750000       0.68750000 </v>
    <v>       0.18750000       0.93750000       0.68750000 </v>
    <v>       0.68750000       0.93750000       0.68750000 </v>
    <v>       0.18750000       0.18750000       0.43750000 </v>
    <v>       0.68750000       0.18750000       0.43750000 </v>
    <v>       0.18750000       0.68750000       0.43750000 </v>
    <v>       0.68750000       0.68750000       0.43750000 </v>
    <v>       0.18750000       0.18750000       0.93750000 </v>
    <v>       0.68750000       0.18750000       0.93750000 </v>
    <v>       0.18750000       0.68750000       0.93750000 </v>
    <v>       0.68750000       0.68750000       0.93750000 </v>
    <v>       0.06250000       0.06250000       0.06250000 </v>
    <v>       0.56250000       0.06250000       0.06250000 </v>
    <v>       0.06250000       0.56250000       0.06250000 </v>
    <v>       0.56250000       0.56250000       0.06250000 </v>
    <v>       0.06250000       0.06250000       0.56250000 </v>
    <v>       0.56250000       0.06250000       0.56250000 </v>
    <v>       0.06250000       0.56250000       0.56250000 </v>
    <v>       0.56250000       0.56250000       0.56250000 </v>
    <v>       0.06250000       0.31250000       0.31250000 </v>
    <v>       0.56250000       0.31250000       0.31250000 </v>
    <v>       0.06250000       0.81250000       0.31250000 </v>
    <v>       0.56250000       0.81250000       0.31250000 </v>
    <v>       0.06250000       0.31250000       0.81250000 </v>
    <v>       0.56250000       0.31250000       0.81250000 </v>
    <v>       0.06250000       0.81250000       0.81250000 </v>
    <v>       0.56250000       0.81250000       0.81250000 </v>
    <v>       0.31250000       0.06250000       0.31250000 </v>
    <v>       0.81250000       0.06250000       0.31250000 </v>
    <v>       0.31250000       0.56250000       0.31250000 </v>
    <v>       0.81250000       0.56250000       0.31250000 </v>
    <v>       0.31250000       0.06250000       0.81250000 </v>
    <v>       0.81250000       0.06250000       0.81250000 </v>
    <v>       0.31250000       0.56250000       0.81250000 </v>
    <v>       0.81250000       0.56250000       0.81250000 </v>
    <v>       0.31250000       0.31250000       0.06250000 </v>
    <v>       0.81250000       0.31250000       0.06250000 </v>
    <v>       0.31250000       0.81250000       0.06250000 </v>
    <v>       0.81250000       0.81250000       0.06250000 </v>
    <v>       0.31250000       0.31250000       0.56250000 </v>
    <v>       0.81250000       0.31250000       0.56250000 </v>
    <v>       0.31250000       0.81250000       0.56250000 </v>
    <v>       0.81250000       0.81250000       0.56250000 </v>
   </varray>
  </structure>
  <varray name="forces" >
   <v>      -0.38752609      -0.00093067      -0.00000518 </v>
   <v>       0.27456725       0.27401822      -0.01409427 </v>
   <v>       0.00144233       0.00012487       0.00001651 </v>
   <v>      -0.00110732      -0.00038857       0.00001501 </v>
   <v>       0.00144189       0.00816758       0.00000046 </v>
   <v>      -0.00110744      -0.00093128       0.00000571 </v>
   <v>      -0.01195865      -0.00040782       0.00000629 </v>
   <v>       0.00874441       0.00012443      -0.00000106 </v>
   <v>      -0.01271582       0.00187721       0.00391201 </v>
   <v>       0.01096806      -0.00572059      -0.00570930 </v>
   <v>      -0.01259756       0.00179320      -0.00382219 </v>
   <v>       0.01099981      -0.00576084       0.00563119 </v>
   <v>      -0.01292016      -0.00322076       0.00119760 </v>
   <v>       0.00714897      -0.00241163       0.00226668 </v>
   <v>      -0.01304412      -0.00333245      -0.00129276 </v>
   <v>       0.00711817      -0.00230299      -0.00230226 </v>
   <v>      -0.00034187       0.00833222       0.01142221 </v>
   <v>      -0.00014951       0.00822109      -0.01162840 </v>
   <v>       0.00014280      -0.00005369      -0.00301797 </v>
   <v>       0.00012854      -0.00006204       0.00298796 </v>
   <v>       0.00356345       0.00982155      -0.00763753 </v>
   <v>       0.00363187       0.00991314       0.00772166 </v>
   <v>       0.00045558       0.00006916       0.00333910 </v>
   <v>       0.00046696       0.00008406      -0.00331690 </v>
   <v>       0.00555419       0.00550604      -0.00271839 </v>
   <v>      -0.00238824      -0.01387830       0.00112516 </v>
   <v>      -0.00221412      -0.01342403      -0.00112111 </v>
   <v>       0.00575401       0.00560295       0.00272270 </v>
   <v>      -0.00100495      -0.00390365      -0.00023146 </v>
   <v>       0.00161199       0.00243709       0.00009389 </v>
   <v>       0.00160681       0.00245236      -0.00009686 </v>
   <v>      -0.00102103      -0.00386957       0.00022857 </v>
   <v>      -0.00537653      -0.00018501      -0.00018078 </v>
   <v>       0.00606611       0.00054141      -0.00037543 </v>
   <v>       0.00078379       0.00081884      -0.00068251 </v>
   <v>      -0.00241612      -0.00362947      -0.00001430 </v>
   <v>       0.00100320       0.00016460      -0.00086410 </v>
   <v>      -0.00240617      -0.00000623       0.00022073 </v>
   <v>      -0.10747605      -0.10629185      -0.08289304 </v>
   <v>       0.09536366       0.06649581       0.06459514 </v>
   <v>      -0.02282610      -0.02217624       0.00013434 </v>
   <v>       0.09665220      -0.06442326      -0.06632905 </v>
   <v>       0.00227130       0.00022661      -0.00041900 </v>
   <v>      -0.00149125      -0.00093759      -0.00118776 </v>
   <v>       0.00246995       0.00128867      -0.00063766 </v>
   <v>      -0.00145748      -0.00510089      -0.00097322 </v>
   <v>      -0.00441616      -0.00071647      -0.00071538 </v>
   <v>       0.00711912       0.00022568      -0.00069583 </v>
   <v>      -0.00144493      -0.00090439       0.00127035 </v>
   <v>       0.00234944       0.00020731       0.00048640 </v>
   <v>       0.09389950      -0.05930601       0.06119524 </v>
   <v>      -0.02154051      -0.02345106       0.00194876 </v>
   <v>       0.00704784       0.00023100       0.00066550 </v>
   <v>      -0.00442279      -0.00072702       0.00069948 </v>
   <v>      -0.00139376      -0.00512600       0.00092673 </v>
   <v>       0.00260475       0.00114488       0.00060232 </v>
   <v>      -0.00235991      -0.00360690       0.00001130 </v>
   <v>       0.00081541       0.00086054       0.00064302 </v>
   <v>       0.00597909       0.00051599       0.00038581 </v>
   <v>      -0.00538861      -0.00018213       0.00015793 </v>
   <v>       0.09262324       0.06134593      -0.05945395 </v>
   <v>      -0.11664780      -0.11546477       0.09530190 </v>
   <v>      -0.00228480       0.00003772      -0.00031539 </v>
   <v>       0.00105017       0.00018398       0.00079539 </v>
  </varray>
  <varray name="stress" >
   <v>      -0.00803613       0.01211564      -0.23690212 </v>
   <v>       0.01211564       0.01124726       0.09794606 </v>
   <v>      -0.23690211       0.09794609       0.02087515 </v>
  </varray>
  <energy>
   <i name="e_fr_energy">   -346.90689901 </i>
   <i name="e_wo_entrp">   -346.90689901 </i>
   <i name="e_0_energy">      0.00000000 </i>
  </energy>
  <time name="totalsc">  124.00  124.43</time>
  <eigenvalues>
   <array>
    <dimension dim="1">band</dimension>
    <dimension dim="2">kpoint</dimension>
    <dimension dim="3">spin</dimension>
    <field>eigene</field>
    <field>occ</field>
    <set>
     <set comment="spin 1">
      <set comment="kpoint 1">
       <r>   -5.9932    1.0000 </r>
       <r>   -5.4682    1.0000 </r>
       <r>   -5.4644    1.0000 </r>
       <r>   -5.4617    1.0000 </r>
       <r>   -4.9688    1.0000 </r>
       <r>   -4.9651    1.0000 </r>
       <r>   -4.9626    1.0000 </r>
       <r>   -4.5324    1.0000 </r>
       <r>   -4.4362    1.0000 </r>
       <r>   -4.4320    1.0000 </r>
       <r>   -4.4293    1.0000 </r>
       <r>   -4.0235    1.0000 </r>
       <r>   -4.0195    1.0000 </r>
       <r>   -4.0164    1.0000 </r>
       <r>   -4.0144    1.0000 </r>
       <r>   -4.0137    1.0000 </r>
       <r>   -4.0109    1.0000 </r>
       <r>   -3.8260    1.0000 </r>
       <r>   -3.8250    1.0000 </r>
       <r>   -3.8217    1.0000 </r>
       <r>   -3.3336    1.0000 </r>
       <r>   -3.3277    1.0000 </r>
       <r>   -3.3250    1.0000 </r>
       <r>   -2.9612    1.0000 </r>
       <r>   -2.9597    1.0000 </r>
       <r>   -2.9563    1.0000 </r>
       <r>   -2.7977    1.0000 </r>
       <r>   -2.7939    1.0000 </r>
       <r>   -2.7908    1.0000 </r>
       <r>   -2.7892    1.0000 </r>
       <r>   -2.7883    1.0000 </r>
       <r>   -2.7846    1.0000 </r>
       <r>   -1.2565    1.0000 </r>
       <r>   -1.2526    1.0000 </r>
       <r>   -1.2486    1.0000 </r>
       <r>   -1.2465    1.0000 </r>
       <r>   -1.2454    1.0000 </r>
       <r>   -1.2442    1.0000 </r>
       <r>   -1.1537    1.0000 </r>
       <r>   -1.1520    1.0000 </r>
       <r>   -1.1485    1.0000 </r>
       <r>   -1.0358    1.0000 </r>
       <r>   -1.0328    1.0000 </r>
       <r>   -1.0302    1.0000 </r>
       <r>   -0.9537    1.0000 </r>
       <r>   -0.9466    1.0000 </r>
       <r>   -0.9371    1.0000 </r>
       <r>   -0.2439    1.0000 </r>
       <r>   -0.1672    1.0000 </r>
       <r>   -0.1652    1.0000 </r>
       <r>   -0.1603    1.0000 </r>
       <r>   -0.1595    1.0000 </r>
       <r>   -0.1560    1.0000 </r>
       <r>   -0.1543    1.0000 </r>
       <r>    0.7102    1.0000 </r>
       <r>    0.7145    1.0000 </r>
       <r>    0.7195    1.0000 </r>
       <r>    1.0440    1.0000 </r>
       <r>    1.0472    1.0000 </r>
       <r>    1.0501    1.0000 </r>
       <r>    1.6520    1.0000 </r>
       <r>    1.6554    1.0000 </r>
       <r>    1.6563    1.0000 </r>
       <r>    1.6574    1.0000 </r>
       <r>    1.6594    1.0000 </r>
       <r>    1.6608    1.0000 </r>
       <r>    1.7122    1.0000 </r>
       <r>    1.7165    1.0000 </r>
       <r>    1.7190    1.0000 </r>
       <r>    2.2670    1.0000 </r>
       <r>    2.2678    1.0000 </r>
       <r>    2.2695    1.0000 </r>
       <r>    2.3662    1.0000 </r>
       <r>    2.3674    1.0000 </r>
       <r>    2.3696    1.0000 </r>
       <r>    2.3708    1.0000 </r>
       <r>    2.3732    1.0000 </r>
       <r>    2.3760    1.0000 </r>
       <r>    2.4217    1.0000 </r>
       <r>    2.4255    1.0000 </r>
       <r>    2.4271    1.0000 </r>
       <r>    2.7299    1.0000 </r>
       <r>    2.7328    1.0000 </r>
       <r>    2.7349    1.0000 </r>
       <r>    2.7355    1.0000 </r>
       <r>    2.7366    1.0000 </r>
       <r>    2.7401    1.0000 </r>
       <r>    2.9977    1.0000 </r>
       <r>    2.9994    1.0000 </r>
       <r>    3.0002    1.0000 </r>
       <r>    3.0103    1.0000 </r>
       <r>    3.0134    1.0000 </r>
       <r>    3.0157    1.0000 </r>
       <r>    3.3597    1.0000 </r>
       <r>    3.3626    1.0000 </r>
       <r>    3.3644    1.0000 </r>
       <r>    3.3833    1.0000 </r>
       <r>    3.3845    1.0000 </r>
       <r>    3.3873    1.0000 </r>
       <r>    3.4641    1.0000 </r>
       <r>    3.4662    1.0000 </r>
       <r>    3.4689    1.0000 </r>
       <r>    3.7345    1.0000 </r>
       <r>    3.7399    1.0000 </r>
       <r>    3.7411    1.0000 </r>
       <r>    3.7419    1.0000 </r>
       <r>    3.7429    1.0000 </r>
       <r>    3.7505    1.0000 </r>
       <r>    3.7777    1.0000 </r>
       <r>    3.7804    1.0000 </r>
       <r>    3.7832    1.0000 </r>
       <r>    4.0413    1.0000 </r>
       <r>    4.0960    1.0000 </r>
       <r>    4.0977    1.0000 </r>
       <r>    4.0989    1.0000 </r>
       <r>    4.3378    1.0000 </r>
       <r>    4.3402    1.0000 </r>
       <r>    4.3441    1.0000 </r>
       <r>    4.4009    1.0000 </r>
       <r>    4.4059    1.0000 </r>
       <r>    4.4136    1.0000 </r>
       <r>    4.5605    1.0000 </r>
       <r>    4.5646    1.0000 </r>
       <r>    4.8656    1.0000 </r>
       <r>    4.8689    1.0000 </r>
       <r>    4.8742    1.0000 </r>
       <r>    5.3468    1.0000 </r>
       <r>    5.3516    1.0000 </r>
       <r>    6.5614    0.0000 </r>
       <r>    6.5627    0.0000 </r>
       <r>    6.5651    0.0000 </r>
       <r>    7.0011    0.0000 </r>
       <r>    7.0039    0.0000 </r>
       <r>    7.0079    0.0000 </r>
       <r>    7.2334    0.0000 </r>
       <r>    7.4877    0.0000 </r>
       <r>    7.4902    0.0000 </r>
       <r>    7.4933    0.0000 </r>
       <r>    7.6173    0.0000 </r>
       <r>    7.6204    0.0000 </r>
       <r>    7.6217    0.0000 </r>
       <r>    7.7776    0.0000 </r>
       <r>    7.7789    0.0000 </r>
       <r>    7.7824    0.0000 </r>
       <r>    7.7991    0.0000 </r>
       <r>    7.8014    0.0000 </r>
       <r>    7.8032    0.0000 </r>
       <r>    8.0251    0.0000 </r>
       <r>    8.0272    0.0000 </r>
       <r>    8.0307    0.0000 </r>
       <r>    8.0319    0.0000 </r>
       <r>    8.0336    0.0000 </r>
       <r>    8.0362    0.0000 </r>
       <r>    8.0810    0.0000 </r>
       <r>    8.2926    0.0000 </r>
       <r>    8.2944    0.0000 </r>
       <r>    8.2978    0.0000 </r>
       <r>    8.4944    0.0000 </r>
       <r>    8.4998    0.0000 </r>
       <r>    8.5024    0.0000 </r>
       <r>    8.5048    0.0000 </r>
       <r>    8.5097    0.0000 </r>
       <r>    8.5213    0.0000 </r>
       <r>    8.5485    0.0000 </r>
      </set>
      <set comment="kpoint 2">
       <r>   -5.9931    1.0000 </r>
       <r>   -5.4697    1.0000 </r>
       <r>   -5.4643    1.0000 </r>
       <r>   -5.4605    1.0000 </r>
       <r>   -4.9701    1.0000 </r>
       <r>   -4.9650    1.0000 </r>
       <r>   -4.9613    1.0000 </r>
       <r>   -4.5316    1.0000 </r>
       <r>   -4.4375    1.0000 </r>
       <r>   -4.4319    1.0000 </r>
       <r>   -4.4277    1.0000 </r>
       <r>   -4.0241    1.0000 </r>
       <r>   -4.0212    1.0000 </r>
       <r>   -4.0164    1.0000 </r>
       <r>   -4.0149    1.0000 </r>
       <r>   -4.0138    1.0000 </r>
       <r>   -4.0095    1.0000 </r>
       <r>   -3.8270    1.0000 </r>
       <r>   -3.8240    1.0000 </r>
       <r>   -3.8230    1.0000 </r>
       <r>   -3.3328    1.0000 </r>
       <r>   -3.3276    1.0000 </r>
       <r>   -3.3223    1.0000 </r>
       <r>   -2.9615    1.0000 </r>
       <r>   -2.9588    1.0000 </r>
       <r>   -2.9576    1.0000 </r>
       <r>   -2.7990    1.0000 </r>
       <r>   -2.7947    1.0000 </r>
       <r>   -2.7909    1.0000 </r>
       <r>   -2.7895    1.0000 </r>
       <r>   -2.7879    1.0000 </r>
       <r>   -2.7837    1.0000 </r>
       <r>   -1.2576    1.0000 </r>
       <r>   -1.2514    1.0000 </r>
       <r>   -1.2486    1.0000 </r>
       <r>   -1.2475    1.0000 </r>
       <r>   -1.2450    1.0000 </r>
       <r>   -1.2417    1.0000 </r>
       <r>   -1.1532    1.0000 </r>
       <r>   -1.1506    1.0000 </r>
       <r>   -1.1489    1.0000 </r>
       <r>   -1.0335    1.0000 </r>
       <r>   -1.0315    1.0000 </r>
       <r>   -1.0297    1.0000 </r>
       <r>   -0.9533    1.0000 </r>
       <r>   -0.9467    1.0000 </r>
       <r>   -0.9462    1.0000 </r>
       <r>   -0.2464    1.0000 </r>
       <r>   -0.1677    1.0000 </r>
       <r>   -0.1606    1.0000 </r>
       <r>   -0.1602    1.0000 </r>
       <r>   -0.1583    1.0000 </r>
       <r>   -0.1556    1.0000 </r>
       <r>   -0.1541    1.0000 </r>
       <r>    0.7107    1.0000 </r>
       <r>    0.7133    1.0000 </r>
       <r>    0.7155    1.0000 </r>
       <r>    1.0445    1.0000 </r>
       <r>    1.0476    1.0000 </r>
       <r>    1.0492    1.0000 </r>
       <r>    1.6528    1.0000 </r>
       <r>    1.6545    1.0000 </r>
       <r>    1.6562    1.0000 </r>
       <r>    1.6578    1.0000 </r>
       <r>    1.6595    1.0000 </r>
       <r>    1.6606    1.0000 </r>
       <r>    1.7152    1.0000 </r>
       <r>    1.7158    1.0000 </r>
       <r>    1.7196    1.0000 </r>
       <r>    2.2653    1.0000 </r>
       <r>    2.2672    1.0000 </r>
       <r>    2.2678    1.0000 </r>
       <r>    2.3670    1.0000 </r>
       <r>    2.3686    1.0000 </r>
       <r>    2.3703    1.0000 </r>
       <r>    2.3713    1.0000 </r>
       <r>    2.3745    1.0000 </r>
       <r>    2.3761    1.0000 </r>
       <r>    2.4228    1.0000 </r>
       <r>    2.4268    1.0000 </r>
       <r>    2.4297    1.0000 </r>
       <r>    2.7291    1.0000 </r>
       <r>    2.7328    1.0000 </r>
       <r>    2.7346    1.0000 </r>
       <r>    2.7355    1.0000 </r>
       <r>    2.7370    1.0000 </r>
       <r>    2.7401    1.0000 </r>
       <r>    2.9992    1.0000 </r>
       <r>    2.9997    1.0000 </r>
       <r>    3.0006    1.0000 </r>
       <r>    3.0114    1.0000 </r>
       <r>    3.0139    1.0000 </r>
       <r>    3.0168    1.0000 </r>
       <r>    3.3578    1.0000 </r>
       <r>    3.3620    1.0000 </r>
       <r>    3.3634    1.0000 </r>
       <r>    3.3804    1.0000 </r>
       <r>    3.3835    1.0000 </r>
       <r>    3.3845    1.0000 </r>
       <r>    3.4644    1.0000 </r>
       <r>    3.4679    1.0000 </r>
       <r>    3.4694    1.0000 </r>
       <r>    3.7329    1.0000 </r>
       <r>    3.7385    1.0000 </r>
       <r>    3.7405    1.0000 </r>
       <r>    3.7415    1.0000 </r>
       <r>    3.7424    1.0000 </r>
       <r>    3.7437    1.0000 </r>
       <r>    3.7783    1.0000 </r>
       <r>    3.7826    1.0000 </r>
       <r>    3.7838    1.0000 </r>
       <r>    4.0382    1.0000 </r>
       <r>    4.0981    1.0000 </r>
       <r>    4.0988    1.0000 </r>
       <r>    4.1007    1.0000 </r>
       <r>    4.3386    1.0000 </r>
       <r>    4.3427    1.0000 </r>
       <r>    4.3446    1.0000 </r>
       <r>    4.4003    1.0000 </r>
       <r>    4.4046    1.0000 </r>
       <r>    4.4057    1.0000 </r>
       <r>    4.5620    1.0000 </r>
       <r>    4.5650    1.0000 </r>
       <r>    4.8669    1.0000 </r>
       <r>    4.8726    1.0000 </r>
       <r>    4.8748    1.0000 </r>
       <r>    5.3493    1.0000 </r>
       <r>    5.3525    1.0000 </r>
       <r>    6.5624    0.0000 </r>
       <r>    6.5649    0.0000 </r>
       <r>    6.5653    0.0000 </r>
       <r>    7.0004    0.0000 </r>
       <r>    7.0049    0.0000 </r>
       <r>    7.0089    0.0000 </r>
       <r>    7.2344    0.0000 </r>
       <r>    7.4878    0.0000 </r>
       <r>    7.4916    0.0000 </r>
       <r>    7.4949    0.0000 </r>
       <r>    7.6175    0.0000 </r>
       <r>    7.6182    0.0000 </r>
       <r>    7.6211    0.0000 </r>
       <r>    7.7764    0.0000 </r>
       <r>    7.7792    0.0000 </r>
       <r>    7.7838    0.0000 </r>
       <r>    7.8006    0.0000 </r>
       <r>    7.8011    0.0000 </r>
       <r>    7.8036    0.0000 </r>
       <r>    8.0249    0.0000 </r>
       <r>    8.0273    0.0000 </r>
       <r>    8.0282    0.0000 </r>
       <r>    8.0305    0.0000 </r>
       <r>    8.0320    0.0000 </r>
       <r>    8.0351    0.0000 </r>
       <r>    8.0824    0.0000 </r>
       <r>    8.2921    0.0000 </r>
       <r>    8.2952    0.0000 </r>
       <r>    8.2979    0.0000 </r>
       <r>    8.4950    0.0000 </r>
       <r>    8.5005    0.0000 </r>
       <r>    8.5015    0.0000 </r>
       <r>    8.5043    0.0000 </r>
       <r>    8.5092    0.0000 </r>
       <r>    8.5250    0.0000 </r>
       <r>    8.5405    0.0000 </r>
      </set>
      <set comment="kpoint 3">
       <r>   -5.9932    1.0000 </r>
       <r>   -5.4692    1.0000 </r>
       <r>   -5.4650    1.0000 </r>
       <r>   -5.4599    1.0000 </r>
       <r>   -4.9698    1.0000 </r>
       <r>   -4.9658    1.0000 </r>
       <r>   -4.9609    1.0000 </r>
       <r>   -4.5326    1.0000 </r>
       <r>   -4.4376    1.0000 </r>
       <r>   -4.4328    1.0000 </r>
       <r>   -4.4278    1.0000 </r>
       <r>   -4.0234    1.0000 </r>
       <r>   -4.0189    1.0000 </r>
       <r>   -4.0178    1.0000 </r>
       <r>   -4.0163    1.0000 </r>
       <r>   -4.0120    1.0000 </r>
       <r>   -4.0088    1.0000 </r>
       <r>   -3.8257    1.0000 </r>
       <r>   -3.8245    1.0000 </r>
       <r>   -3.8218    1.0000 </r>
       <r>   -3.3347    1.0000 </r>
       <r>   -3.3290    1.0000 </r>
       <r>   -3.3242    1.0000 </r>
       <r>   -2.9606    1.0000 </r>
       <r>   -2.9596    1.0000 </r>
       <r>   -2.9568    1.0000 </r>
       <r>   -2.7977    1.0000 </r>
       <r>   -2.7939    1.0000 </r>
       <r>   -2.7921    1.0000 </r>
       <r>   -2.7909    1.0000 </r>
       <r>   -2.7870    1.0000 </r>
       <r>   -2.7824    1.0000 </r>
       <r>   -1.2564    1.0000 </r>
       <r>   -1.2526    1.0000 </r>
       <r>   -1.2499    1.0000 </r>
       <r>   -1.2487    1.0000 </r>
       <r>   -1.2464    1.0000 </r>
       <r>   -1.2407    1.0000 </r>
       <r>   -1.1533    1.0000 </r>
       <r>   -1.1521    1.0000 </r>
       <r>   -1.1498    1.0000 </r>
       <r>   -1.0358    1.0000 </r>
       <r>   -1.0327    1.0000 </r>
       <r>   -1.0312    1.0000 </r>
       <r>   -0.9474    1.0000 </r>
       <r>   -0.9468    1.0000 </r>
       <r>   -0.9399    1.0000 </r>
       <r>   -0.2428    1.0000 </r>
       <r>   -0.1658    1.0000 </r>
       <r>   -0.1648    1.0000 </r>
       <r>   -0.1619    1.0000 </r>
       <r>   -0.1602    1.0000 </r>
       <r>   -0.1596    1.0000 </r>
       <r>   -0.1525    1.0000 </r>
       <r>    0.7131    1.0000 </r>
       <r>    0.7153    1.0000 </r>
       <r>    0.7179    1.0000 </r>
       <r>    1.0450    1.0000 </r>
       <r>    1.0464    1.0000 </r>
       <r>    1.0497    1.0000 </r>
       <r>    1.6527    1.0000 </r>
       <r>    1.6543    1.0000 </r>
       <r>    1.6563    1.0000 </r>
       <r>    1.6578    1.0000 </r>
       <r>    1.6590    1.0000 </r>
       <r>    1.6606    1.0000 </r>
       <r>    1.7129    1.0000 </r>
       <r>    1.7167    1.0000 </r>
       <r>    1.7178    1.0000 </r>
       <r>    2.2678    1.0000 </r>
       <r>    2.2681    1.0000 </r>
       <r>    2.2699    1.0000 </r>
       <r>    2.3651    1.0000 </r>
       <r>    2.3671    1.0000 </r>
       <r>    2.3697    1.0000 </r>
       <r>    2.3707    1.0000 </r>
       <r>    2.3731    1.0000 </r>
       <r>    2.3745    1.0000 </r>
       <r>    2.4210    1.0000 </r>
       <r>    2.4240    1.0000 </r>
       <r>    2.4278    1.0000 </r>
       <r>    2.7297    1.0000 </r>
       <r>    2.7328    1.0000 </r>
       <r>    2.7344    1.0000 </r>
       <r>    2.7353    1.0000 </r>
       <r>    2.7371    1.0000 </r>
       <r>    2.7407    1.0000 </r>
       <r>    2.9972    1.0000 </r>
       <r>    2.9991    1.0000 </r>
       <r>    2.9995    1.0000 </r>
       <r>    3.0106    1.0000 </r>
       <r>    3.0129    1.0000 </r>
       <r>    3.0152    1.0000 </r>
       <r>    3.3604    1.0000 </r>
       <r>    3.3622    1.0000 </r>
       <r>    3.3662    1.0000 </r>
       <r>    3.3841    1.0000 </r>
       <r>    3.3848    1.0000 </r>
       <r>    3.3886    1.0000 </r>
       <r>    3.4637    1.0000 </r>
       <r>    3.4658    1.0000 </r>
       <r>    3.4690    1.0000 </r>
       <r>    3.7387    1.0000 </r>
       <r>    3.7401    1.0000 </r>
       <r>    3.7411    1.0000 </r>
       <r>    3.7418    1.0000 </r>
       <r>    3.7435    1.0000 </r>
       <r>    3.7498    1.0000 </r>
       <r>    3.7774    1.0000 </r>
       <r>    3.7801    1.0000 </r>
       <r>    3.7835    1.0000 </r>
       <r>    4.0420    1.0000 </r>
       <r>    4.0954    1.0000 </r>
       <r>    4.0975    1.0000 </r>
       <r>    4.0981    1.0000 </r>
       <r>    4.3374    1.0000 </r>
       <r>    4.3393    1.0000 </r>
       <r>    4.3434    1.0000 </r>
       <r>    4.4057    1.0000 </r>
       <r>    4.4070    1.0000 </r>
       <r>    4.4115    1.0000 </r>
       <r>    4.5609    1.0000 </r>
       <r>    4.5637    1.0000 </r>
       <r>    4.8654    1.0000 </r>
       <r>    4.8678    1.0000 </r>
       <r>    4.8733    1.0000 </r>
       <r>    5.3469    1.0000 </r>
       <r>    5.3503    1.0000 </r>
       <r>    6.5616    0.0000 </r>
       <r>    6.5618    0.0000 </r>
       <r>    6.5643    0.0000 </r>
       <r>    6.9998    0.0000 </r>
       <r>    7.0039    0.0000 </r>
       <r>    7.0084    0.0000 </r>
       <r>    7.2330    0.0000 </r>
       <r>    7.4863    0.0000 </r>
       <r>    7.4899    0.0000 </r>
       <r>    7.4934    0.0000 </r>
       <r>    7.6182    0.0000 </r>
       <r>    7.6208    0.0000 </r>
       <r>    7.6219    0.0000 </r>
       <r>    7.7751    0.0000 </r>
       <r>    7.7800    0.0000 </r>
       <r>    7.7830    0.0000 </r>
       <r>    7.7999    0.0000 </r>
       <r>    7.8011    0.0000 </r>
       <r>    7.8021    0.0000 </r>
       <r>    8.0255    0.0000 </r>
       <r>    8.0292    0.0000 </r>
       <r>    8.0308    0.0000 </r>
       <r>    8.0325    0.0000 </r>
       <r>    8.0340    0.0000 </r>
       <r>    8.0362    0.0000 </r>
       <r>    8.0802    0.0000 </r>
       <r>    8.2919    0.0000 </r>
       <r>    8.2947    0.0000 </r>
       <r>    8.2979    0.0000 </r>
       <r>    8.4960    0.0000 </r>
       <r>    8.4997    0.0000 </r>
       <r>    8.5014    0.0000 </r>
       <r>    8.5038    0.0000 </r>
       <r>    8.5091    0.0000 </r>
       <r>    8.5200    0.0000 </r>
       <r>    8.5405    0.0000 </r>
      </set>
      <set comment="kpoint 4">
       <r>   -5.9932    1.0000 </r>
       <r>   -5.4679    1.0000 </r>
       <r>   -5.4650    1.0000 </r>
       <r>   -5.4615    1.0000 </r>
       <r>   -4.9684    1.0000 </r>
       <r>   -4.9658    1.0000 </r>
       <r>   -4.9623    1.0000 </r>
       <r>   -4.5320    1.0000 </r>
       <r>   -4.4354    1.0000 </r>
       <r>   -4.4328    1.0000 </r>
       <r>   -4.4288    1.0000 </r>
       <r>   -4.0224    1.0000 </r>
       <r>   -4.0190    1.0000 </r>
       <r>   -4.0184    1.0000 </r>
       <r>   -4.0163    1.0000 </r>
       <r>   -4.0137    1.0000 </r>
       <r>   -4.0095    1.0000 </r>
       <r>   -3.8271    1.0000 </r>
       <r>   -3.8239    1.0000 </r>
       <r>   -3.8225    1.0000 </r>
       <r>   -3.3318    1.0000 </r>
       <r>   -3.3289    1.0000 </r>
       <r>   -3.3233    1.0000 </r>
       <r>   -2.9619    1.0000 </r>
       <r>   -2.9585    1.0000 </r>
       <r>   -2.9572    1.0000 </r>
       <r>   -2.7966    1.0000 </r>
       <r>   -2.7935    1.0000 </r>
       <r>   -2.7926    1.0000 </r>
       <r>   -2.7909    1.0000 </r>
       <r>   -2.7878    1.0000 </r>
       <r>   -2.7837    1.0000 </r>
       <r>   -1.2538    1.0000 </r>
       <r>   -1.2522    1.0000 </r>
       <r>   -1.2509    1.0000 </r>
       <r>   -1.2487    1.0000 </r>
       <r>   -1.2453    1.0000 </r>
       <r>   -1.2418    1.0000 </r>
       <r>   -1.1540    1.0000 </r>
       <r>   -1.1504    1.0000 </r>
       <r>   -1.1487    1.0000 </r>
       <r>   -1.0352    1.0000 </r>
       <r>   -1.0318    1.0000 </r>
       <r>   -1.0297    1.0000 </r>
       <r>   -0.9557    1.0000 </r>
       <r>   -0.9471    1.0000 </r>
       <r>   -0.9396    1.0000 </r>
       <r>   -0.2453    1.0000 </r>
       <r>   -0.1657    1.0000 </r>
       <r>   -0.1644    1.0000 </r>
       <r>   -0.1608    1.0000 </r>
       <r>   -0.1600    1.0000 </r>
       <r>   -0.1551    1.0000 </r>
       <r>   -0.1529    1.0000 </r>
       <r>    0.7091    1.0000 </r>
       <r>    0.7140    1.0000 </r>
       <r>    0.7184    1.0000 </r>
       <r>    1.0442    1.0000 </r>
       <r>    1.0470    1.0000 </r>
       <r>    1.0501    1.0000 </r>
       <r>    1.6527    1.0000 </r>
       <r>    1.6546    1.0000 </r>
       <r>    1.6566    1.0000 </r>
       <r>    1.6577    1.0000 </r>
       <r>    1.6585    1.0000 </r>
       <r>    1.6616    1.0000 </r>
       <r>    1.7134    1.0000 </r>
       <r>    1.7154    1.0000 </r>
       <r>    1.7202    1.0000 </r>
       <r>    2.2658    1.0000 </r>
       <r>    2.2678    1.0000 </r>
       <r>    2.2684    1.0000 </r>
       <r>    2.3656    1.0000 </r>
       <r>    2.3685    1.0000 </r>
       <r>    2.3702    1.0000 </r>
       <r>    2.3721    1.0000 </r>
       <r>    2.3744    1.0000 </r>
       <r>    2.3756    1.0000 </r>
       <r>    2.4234    1.0000 </r>
       <r>    2.4247    1.0000 </r>
       <r>    2.4288    1.0000 </r>
       <r>    2.7299    1.0000 </r>
       <r>    2.7331    1.0000 </r>
       <r>    2.7343    1.0000 </r>
       <r>    2.7349    1.0000 </r>
       <r>    2.7372    1.0000 </r>
       <r>    2.7399    1.0000 </r>
       <r>    2.9982    1.0000 </r>
       <r>    2.9995    1.0000 </r>
       <r>    3.0009    1.0000 </r>
       <r>    3.0111    1.0000 </r>
       <r>    3.0131    1.0000 </r>
       <r>    3.0166    1.0000 </r>
       <r>    3.3585    1.0000 </r>
       <r>    3.3617    1.0000 </r>
       <r>    3.3642    1.0000 </r>
       <r>    3.3820    1.0000 </r>
       <r>    3.3843    1.0000 </r>
       <r>    3.3852    1.0000 </r>
       <r>    3.4642    1.0000 </r>
       <r>    3.4670    1.0000 </r>
       <r>    3.4693    1.0000 </r>
       <r>    3.7325    1.0000 </r>
       <r>    3.7395    1.0000 </r>
       <r>    3.7406    1.0000 </r>
       <r>    3.7414    1.0000 </r>
       <r>    3.7427    1.0000 </r>
       <r>    3.7477    1.0000 </r>
       <r>    3.7778    1.0000 </r>
       <r>    3.7813    1.0000 </r>
       <r>    3.7838    1.0000 </r>
       <r>    4.0397    1.0000 </r>
       <r>    4.0970    1.0000 </r>
       <r>    4.0979    1.0000 </r>
       <r>    4.1005    1.0000 </r>
       <r>    4.3380    1.0000 </r>
       <r>    4.3419    1.0000 </r>
       <r>    4.3445    1.0000 </r>
       <r>    4.3986    1.0000 </r>
       <r>    4.4053    1.0000 </r>
       <r>    4.4109    1.0000 </r>
       <r>    4.5608    1.0000 </r>
       <r>    4.5652    1.0000 </r>
       <r>    4.8660    1.0000 </r>
       <r>    4.8712    1.0000 </r>
       <r>    4.8748    1.0000 </r>
       <r>    5.3478    1.0000 </r>
       <r>    5.3525    1.0000 </r>
       <r>    6.5616    0.0000 </r>
       <r>    6.5641    0.0000 </r>
       <r>    6.5654    0.0000 </r>
       <r>    7.0008    0.0000 </r>
       <r>    7.0051    0.0000 </r>
       <r>    7.0079    0.0000 </r>
       <r>    7.2340    0.0000 </r>
       <r>    7.4880    0.0000 </r>
       <r>    7.4915    0.0000 </r>
       <r>    7.4937    0.0000 </r>
       <r>    7.6173    0.0000 </r>
       <r>    7.6187    0.0000 </r>
       <r>    7.6217    0.0000 </r>
       <r>    7.7765    0.0000 </r>
       <r>    7.7809    0.0000 </r>
       <r>    7.7821    0.0000 </r>
       <r>    7.7998    0.0000 </r>
       <r>    7.8015    0.0000 </r>
       <r>    7.8033    0.0000 </r>
       <r>    8.0247    0.0000 </r>
       <r>    8.0272    0.0000 </r>
       <r>    8.0290    0.0000 </r>
       <r>    8.0305    0.0000 </r>
       <r>    8.0340    0.0000 </r>
       <r>    8.0351    0.0000 </r>
       <r>    8.0820    0.0000 </r>
       <r>    8.2922    0.0000 </r>
       <r>    8.2956    0.0000 </r>
       <r>    8.2973    0.0000 </r>
       <r>    8.4959    0.0000 </r>
       <r>    8.4973    0.0000 </r>
       <r>    8.5026    0.0000 </r>
       <r>    8.5054    0.0000 </r>
       <r>    8.5093    0.0000 </r>
       <r>    8.5149    0.0000 </r>
       <r>    8.5408    0.0000 </r>
      </set>
     </set>
    </set>
   </array>
  </eigenvalues>
  <separator name="orbital magnetization" >
   <v name="MAGDIPOLOUT">      0.00000000      0.00000000      0.00000000</v>
  </separator>
  <dos>
   <i name="efermi">      5.59987682 </i>
   <total>
    <array>
     <dimension dim="1">gridpoints</dimension>
     <dimension dim="2">spin</dimension>
     <field>energy</field>
     <field>total</field>
     <field>integrated</field>
     <set>
      <set comment="spin 1">
       <r>    -6.7203     0.0000     0.0000 </r>
       <r>    -6.6670     0.0000     0.0000 </r>
       <r>    -6.6137     0.0000     0.0000 </r>
       <r>    -6.5603     0.0000     0.0000 </r>
       <r>    -6.5070     0.0000     0.0000 </r>
       <r>    -6.4537     0.0000     0.0000 </r>
       <r>    -6.4004     0.0000     0.0000 </r>
       <r>    -6.3471     0.0000     0.0000 </r>
       <r>    -6.2937     0.0000     0.0000 </r>
       <r>    -6.2404     0.0000     0.0000 </r>
       <r>    -6.1871     0.0000     0.0000 </r>
       <r>    -6.1338     0.0013     0.0001 </r>
       <r>    -6.0805     0.2531     0.0136 </r>
       <r>    -6.0271     6.0622     0.3368 </r>
       <r>    -5.9738    20.2408     1.4160 </r>
       <r>    -5.9205    10.2055     1.9602 </r>
       <r>    -5.8672     0.7398     1.9996 </r>
       <r>    -5.8139     0.0068     2.0000 </r>
       <r>    -5.7605     0.0000     2.0000 </r>
       <r>    -5.7072     0.0000     2.0000 </r>
       <r>    -5.6539     0.0000     2.0000 </r>
       <r>    -5.6006     0.0074     2.0004 </r>
       <r>    -5.5473     1.1274     2.0605 </r>
       <r>    -5.4939    22.0087     3.2340 </r>
       <r>    -5.4406    61.4526     6.5106 </r>
       <r>    -5.3873    26.2940     7.9126 </r>
       <r>    -5.3340     1.6258     7.9993 </r>
       <r>    -5.2807     0.0129     8.0000 </r>
       <r>    -5.2273     0.0000     8.0000 </r>
       <r>    -5.1740     0.0000     8.0000 </r>
       <r>    -5.1207     0.0007     8.0000 </r>
       <r>    -5.0674     0.2296     8.0123 </r>
       <r>    -5.0141     9.3974     8.5133 </r>
       <r>    -4.9608    52.6145    11.3187 </r>
       <r>    -4.9074    44.5538    13.6943 </r>
       <r>    -4.8541     5.6371    13.9949 </r>
       <r>    -4.8008     0.0955    14.0000 </r>
       <r>    -4.7475     0.0002    14.0000 </r>
       <r>    -4.6942     0.0001    14.0000 </r>
       <r>    -4.6408     0.0396    14.0021 </r>
       <r>    -4.5875     2.1633    14.1175 </r>
       <r>    -4.5342    15.9250    14.9666 </r>
       <r>    -4.4809    26.3623    16.3722 </r>
       <r>    -4.4276    55.4255    19.3275 </r>
       <r>    -4.3742    44.4349    21.6967 </r>
       <r>    -4.3209     5.5931    21.9949 </r>
       <r>    -4.2676     0.0946    22.0000 </r>
       <r>    -4.2143     0.0002    22.0000 </r>
       <r>    -4.1610     0.0056    22.0003 </r>
       <r>    -4.1076     1.1768    22.0630 </r>
       <r>    -4.0543    31.2304    23.7282 </r>
       <r>    -4.0010   117.8699    30.0130 </r>
       <r>    -3.9477    68.7700    33.6798 </r>
       <r>    -3.8944     8.6366    34.1403 </r>
       <r>    -3.8410    33.2358    35.9124 </r>
       <r>    -3.7877    59.7434    39.0979 </r>
       <r>    -3.7344    16.2963    39.9669 </r>
       <r>    -3.6811     0.6187    39.9998 </r>
       <r>    -3.6278     0.0029    40.0000 </r>
       <r>    -3.5744     0.0000    40.0000 </r>
       <r>    -3.5211     0.0000    40.0000 </r>
       <r>    -3.4678     0.0050    40.0003 </r>
       <r>    -3.4145     0.8694    40.0466 </r>
       <r>    -3.3612    19.2167    41.0713 </r>
       <r>    -3.3078    60.7306    44.3094 </r>
       <r>    -3.2545    29.5764    45.8864 </r>
       <r>    -3.2012     2.1111    45.9990 </r>
       <r>    -3.1479     0.0197    46.0000 </r>
       <r>    -3.0946     0.0074    46.0004 </r>
       <r>    -3.0412     1.1399    46.0612 </r>
       <r>    -2.9879    22.2698    47.2486 </r>
       <r>    -2.9346    61.6434    50.5354 </r>
       <r>    -2.8813    27.1531    51.9832 </r>
       <r>    -2.8280    33.7521    53.7828 </r>
       <r>    -2.7746   118.4526    60.0987 </r>
       <r>    -2.7213    67.3991    63.6924 </r>
       <r>    -2.6680     5.7048    63.9966 </r>
       <r>    -2.6147     0.0641    64.0000 </r>
       <r>    -2.5614     0.0001    64.0000 </r>
       <r>    -2.5080     0.0000    64.0000 </r>
       <r>    -2.4547     0.0000    64.0000 </r>
       <r>    -2.4014     0.0000    64.0000 </r>
       <r>    -2.3481     0.0000    64.0000 </r>
       <r>    -2.2948     0.0000    64.0000 </r>
       <r>    -2.2414     0.0000    64.0000 </r>
       <r>    -2.1881     0.0000    64.0000 </r>
       <r>    -2.1348     0.0000    64.0000 </r>
       <r>    -2.0815     0.0000    64.0000 </r>
       <r>    -2.0282     0.0000    64.0000 </r>
       <r>    -1.9748     0.0000    64.0000 </r>
       <r>    -1.9215     0.0000    64.0000 </r>
       <r>    -1.8682     0.0000    64.0000 </r>
       <r>    -1.8149     0.0000    64.0000 </r>
       <r>    -1.7616     0.0000    64.0000 </r>
       <r>    -1.7083     0.0000    64.0000 </r>
       <r>    -1.6549     0.0000    64.0000 </r>
       <r>    -1.6016     0.0000    64.0000 </r>
       <r>    -1.5483     0.0000    64.0000 </r>
       <r>    -1.4950     0.0000    64.0000 </r>
       <r>    -1.4417     0.0000    64.0000 </r>
       <r>    -1.3883     0.0103    64.0006 </r>
       <r>    -1.3350     1.7576    64.0943 </r>
       <r>    -1.2817    38.4678    66.1454 </r>
       <r>    -1.2284   122.8777    72.6972 </r>
       <r>    -1.1751    85.8576    77.2751 </r>
       <r>    -1.1217    66.4903    80.8203 </r>
       <r>    -1.0684    38.5508    82.8758 </r>
       <r>    -1.0151    64.1751    86.2976 </r>
       <r>    -0.9618    67.2204    89.8818 </r>
       <r>    -0.9085    61.1497    93.1422 </r>
       <r>    -0.8551    15.4950    93.9684 </r>
       <r>    -0.8018     0.5891    93.9998 </r>
       <r>    -0.7485     0.0029    94.0000 </r>
       <r>    -0.6952     0.0000    94.0000 </r>
       <r>    -0.6419     0.0000    94.0000 </r>
       <r>    -0.5885     0.0000    94.0000 </r>
       <r>    -0.5352     0.0000    94.0000 </r>
       <r>    -0.4819     0.0000    94.0000 </r>
       <r>    -0.4286     0.0000    94.0000 </r>
       <r>    -0.3753     0.0042    94.0002 </r>
       <r>    -0.3219     0.5369    94.0288 </r>
       <r>    -0.2686     9.0446    94.5111 </r>
       <r>    -0.2153    33.9562    96.3216 </r>
       <r>    -0.1620   101.4368   101.7302 </r>
       <r>    -0.1087   100.8377   107.1068 </r>
       <r>    -0.0553    16.3813   107.9803 </r>
       <r>    -0.0020     0.3686   107.9999 </r>
       <r>     0.0513     0.0010   108.0000 </r>
       <r>     0.1046     0.0000   108.0000 </r>
       <r>     0.1579     0.0000   108.0000 </r>
       <r>     0.2113     0.0000   108.0000 </r>
       <r>     0.2646     0.0000   108.0000 </r>
       <r>     0.3179     0.0000   108.0000 </r>
       <r>     0.3712     0.0000   108.0000 </r>
       <r>     0.4245     0.0000   108.0000 </r>
       <r>     0.4779     0.0000   108.0000 </r>
       <r>     0.5312     0.0000   108.0000 </r>
       <r>     0.5845     0.0144   108.0008 </r>
       <r>     0.6378     1.7410   108.0936 </r>
       <r>     0.6911    27.1744   109.5425 </r>
       <r>     0.7445    61.3502   112.8137 </r>
       <r>     0.7978    21.1982   113.9440 </r>
       <r>     0.8511     1.0441   113.9997 </r>
       <r>     0.9044     0.0097   114.0002 </r>
       <r>     0.9577     0.6524   114.0350 </r>
       <r>     1.0111    16.7291   114.9269 </r>
       <r>     1.0644    59.9398   118.1229 </r>
       <r>     1.1177    32.6013   119.8612 </r>
       <r>     1.1710     2.5768   119.9986 </r>
       <r>     1.2243     0.0263   120.0000 </r>
       <r>     1.2777     0.0000   120.0000 </r>
       <r>     1.3310     0.0000   120.0000 </r>
       <r>     1.3843     0.0000   120.0000 </r>
       <r>     1.4376     0.0000   120.0000 </r>
       <r>     1.4909     0.0003   120.0000 </r>
       <r>     1.5442     0.1679   120.0090 </r>
       <r>     1.5976    10.5067   120.5692 </r>
       <r>     1.6509    90.4392   125.3914 </r>
       <r>     1.7042   144.8090   133.1125 </r>
       <r>     1.7575    77.4376   137.2415 </r>
       <r>     1.8108    13.7974   137.9772 </r>
       <r>     1.8642     0.4267   137.9999 </r>
       <r>     1.9175     0.0017   138.0000 </r>
       <r>     1.9708     0.0000   138.0000 </r>
       <r>     2.0241     0.0000   138.0000 </r>
       <r>     2.0774     0.0000   138.0000 </r>
       <r>     2.1308     0.0061   138.0003 </r>
       <r>     2.1841     1.0128   138.0543 </r>
       <r>     2.2374    21.0493   139.1767 </r>
       <r>     2.2907    64.2177   142.6007 </r>
       <r>     2.3440    76.6371   146.6870 </r>
       <r>     2.3974   147.9108   154.5736 </r>
       <r>     2.4507   109.9077   160.4338 </r>
       <r>     2.5040    27.8708   161.9199 </r>
       <r>     2.5573     1.4920   161.9994 </r>
       <r>     2.6106     0.0632   162.0028 </r>
       <r>     2.6640     5.0848   162.2739 </r>
       <r>     2.7173    64.5408   165.7152 </r>
       <r>     2.7706   119.9246   172.1095 </r>
       <r>     2.8239    34.0822   173.9268 </r>
       <r>     2.8772     1.4044   174.0017 </r>
       <r>     2.9306     3.9866   174.2142 </r>
       <r>     2.9839    56.0678   177.2038 </r>
       <r>     3.0372   120.7752   183.6435 </r>
       <r>     3.0905    41.9799   185.8818 </r>
       <r>     3.1438     2.2011   185.9992 </r>
       <r>     3.1972     0.0157   186.0000 </r>
       <r>     3.2505     0.1020   186.0054 </r>
       <r>     3.3038     6.8630   186.3714 </r>
       <r>     3.3571    68.1781   190.0066 </r>
       <r>     3.4104   120.6423   196.4392 </r>
       <r>     3.4638    80.2301   200.7171 </r>
       <r>     3.5171    52.8622   203.5357 </r>
       <r>     3.5704     8.5174   203.9898 </r>
       <r>     3.6237     0.2998   204.0058 </r>
       <r>     3.6770     8.1138   204.4384 </r>
       <r>     3.7304    85.9739   209.0225 </r>
       <r>     3.7837   164.4783   217.7924 </r>
       <r>     3.8370    71.7507   221.6182 </r>
       <r>     3.8903     7.0458   221.9938 </r>
       <r>     3.9436     0.2339   222.0063 </r>
       <r>     3.9970     4.2549   222.2332 </r>
       <r>     4.0503    28.4911   223.7523 </r>
       <r>     4.1036    66.5274   227.2995 </r>
       <r>     4.1569    45.2133   229.7103 </r>
       <r>     4.2102     5.3602   229.9961 </r>
       <r>     4.2636     1.6991   230.0867 </r>
       <r>     4.3169    26.9464   231.5235 </r>
       <r>     4.3702    78.6564   235.7174 </r>
       <r>     4.4235    81.8202   240.0800 </r>
       <r>     4.4768    33.9627   241.8909 </r>
       <r>     4.5302    15.3707   242.7105 </r>
       <r>     4.5835    40.6904   244.8801 </r>
       <r>     4.6368    19.6269   245.9266 </r>
       <r>     4.6901     1.3652   245.9994 </r>
       <r>     4.7434     0.0326   246.0011 </r>
       <r>     4.7967     2.1717   246.1169 </r>
       <r>     4.8501    30.0255   247.7178 </r>
       <r>     4.9034    60.6626   250.9523 </r>
       <r>     4.9567    18.8142   251.9555 </r>
       <r>     5.0100     0.8297   251.9998 </r>
       <r>     5.0633     0.0046   252.0000 </r>
       <r>     5.1167     0.0000   252.0000 </r>
       <r>     5.1700     0.0000   252.0000 </r>
       <r>     5.2233     0.0134   252.0007 </r>
       <r>     5.2766     1.4513   252.0781 </r>
       <r>     5.3299    20.1584   253.1529 </r>
       <r>     5.3833    40.4981   255.3123 </r>
       <r>     5.4366    12.3647   255.9716 </r>
       <r>     5.4899     0.5305   255.9998 </r>
       <r>     5.5432     0.0028   256.0000 </r>
       <r>     5.5965     0.0000   256.0000 </r>
       <r>     5.6499     0.0000   256.0000 </r>
       <r>     5.7032     0.0000   256.0000 </r>
       <r>     5.7565     0.0000   256.0000 </r>
       <r>     5.8098     0.0000   256.0000 </r>
       <r>     5.8631     0.0000   256.0000 </r>
       <r>     5.9165     0.0000   256.0000 </r>
       <r>     5.9698     0.0000   256.0000 </r>
       <r>     6.0231     0.0000   256.0000 </r>
       <r>     6.0764     0.0000   256.0000 </r>
       <r>     6.1297     0.0000   256.0000 </r>
       <r>     6.1831     0.0000   256.0000 </r>
       <r>     6.2364     0.0000   256.0000 </r>
       <r>     6.2897     0.0000   256.0000 </r>
       <r>     6.3430     0.0000   256.0000 </r>
       <r>     6.3963     0.0001   256.0000 </r>
       <r>     6.4497     0.0736   256.0039 </r>
       <r>     6.5030     4.8680   256.2635 </r>
       <r>     6.5563    42.3918   258.5238 </r>
       <r>     6.6096    54.4257   261.4258 </r>
       <r>     6.6629    10.4936   261.9853 </r>
       <r>     6.7163     0.2752   262.0000 </r>
       <r>     6.7696     0.0009   262.0000 </r>
       <r>     6.8229     0.0000   262.0000 </r>
       <r>     6.8762     0.0171   262.0009 </r>
       <r>     6.9295     1.9469   262.1047 </r>
       <r>     6.9829    28.6164   263.6305 </r>
       <r>     7.0362    61.0679   266.8867 </r>
       <r>     7.0895    19.9496   267.9504 </r>
       <r>     7.1428     1.1158   268.0099 </r>
       <r>     7.1961     5.2156   268.2880 </r>
       <r>     7.2495    19.8041   269.3439 </r>
       <r>     7.3028    11.3523   269.9492 </r>
       <r>     7.3561     0.9508   269.9999 </r>
       <r>     7.4094     1.2341   270.0657 </r>
       <r>     7.4627    22.9921   271.2916 </r>
       <r>     7.5161    61.8127   274.5875 </r>
       <r>     7.5694    33.7934   276.3893 </r>
       <r>     7.6227    52.9132   279.2106 </r>
       <r>     7.6760    46.2963   281.6791 </r>
       <r>     7.7293    17.0265   282.5870 </r>
       <r>     7.7827    82.6038   286.9914 </r>
       <r>     7.8360   106.6530   292.6781 </r>
       <r>     7.8893    23.9577   293.9555 </r>
       <r>     7.9426     2.3415   294.0804 </r>
       <r>     7.9959    36.0289   296.0014 </r>
       <r>     8.0492   127.1152   302.7792 </r>
       <r>     8.1026    82.8330   307.1958 </r>
       <r>     8.1559    14.3817   307.9626 </r>
       <r>     8.2092     1.5668   308.0461 </r>
       <r>     8.2625    19.3737   309.0792 </r>
       <r>     8.3158    61.0152   312.3325 </r>
       <r>     8.3692    29.2526   313.8922 </r>
       <r>     8.4225     4.5305   314.1338 </r>
       <r>     8.4758    45.7962   316.5756 </r>
       <r>     8.5291   132.8085   323.6569 </r>
       <r>     8.5824    72.7595   327.5364 </r>
       <r>     8.6358     8.4924   327.9892 </r>
       <r>     8.6891     0.2013   328.0000 </r>
       <r>     8.7424     0.0008   328.0000 </r>
       <r>     8.7957     0.0000   328.0000 </r>
       <r>     8.8490     0.0000   328.0000 </r>
       <r>     8.9024     0.0000   328.0000 </r>
       <r>     8.9557     0.0000   328.0000 </r>
       <r>     9.0090     0.0000   328.0000 </r>
       <r>     9.0623     0.0000   328.0000 </r>
       <r>     9.1156     0.0000   328.0000 </r>
       <r>     9.1690     0.0000   328.0000 </r>
       <r>     9.2223     0.0000   328.0000 </r>
       <r>     9.2756     0.0000   328.0000 </r>
      </set>
     </set>
    </array>
   </total>
  </dos>
 </calculation>
 <structure name="finalpos" >
  <crystal>
   <varray name="basis" >
    <v>      10.93252578       0.00000000       0.00000000 </v>
    <v>       0.00000000      10.93252578       0.00000000 </v>
    <v>       0.00000000       0.00000000      10.93252578 </v>
   </varray>
   <i name="volume">   1306.65679237 </i>
   <varray name="rec_basis" >
    <v>       0.09147017       0.00000000       0.00000000 </v>
    <v>       0.00000000       0.09147017       0.00000000 </v>
    <v>       0.00000000       0.00000000       0.09147017 </v>
   </varray>
  </crystal>
  <varray name="positions" >
   <v>       0.44024411       0.43750000       0.43750000 </v>
   <v>       0.93555962       0.43555962       0.43750000 </v>
   <v>       0.43750000       0.93750000       0.43750000 </v>
   <v>       0.93750000       0.93750000       0.43750000 </v>
   <v>       0.43750000       0.43750000       0.93750000 </v>
   <v>       0.93750000       0.43750000       0.93750000 </v>
   <v>       0.43750000       0.93750000       0.93750000 </v>
   <v>       0.93750000       0.93750000       0.93750000 </v>
   <v>       0.43750000       0.18750000       0.18750000 </v>
   <v>       0.93750000       0.18750000       0.18750000 </v>
   <v>       0.43750000       0.68750000       0.18750000 </v>
   <v>       0.93750000       0.68750000       0.18750000 </v>
   <v>       0.43750000       0.18750000       0.68750000 </v>
   <v>       0.93750000       0.18750000       0.68750000 </v>
   <v>       0.43750000       0.68750000       0.68750000 </v>
   <v>       0.93750000       0.68750000       0.68750000 </v>
   <v>       0.18750000       0.43750000       0.18750000 </v>
   <v>       0.68750000       0.43750000       0.18750000 </v>
   <v>       0.18750000       0.93750000       0.18750000 </v>
   <v>       0.68750000       0.93750000       0.18750000 </v>
   <v>       0.18750000       0.43750000       0.68750000 </v>
   <v>       0.68750000       0.43750000       0.68750000 </v>
   <v>       0.18750000       0.93750000       0.68750000 </v>
   <v>       0.68750000       0.93750000       0.68750000 </v>
   <v>       0.18750000       0.18750000       0.43750000 </v>
   <v>       0.68750000       0.18750000       0.43750000 </v>
   <v>       0.18750000       0.68750000       0.43750000 </v>
   <v>       0.68750000       0.68750000       0.43750000 </v>
   <v>       0.18750000       0.18750000       0.93750000 </v>
   <v>       0.68750000       0.18750000       0.93750000 </v>
   <v>       0.18750000       0.68750000       0.93750000 </v>
   <v>       0.68750000       0.68750000       0.93750000 </v>
   <v>       0.06250000       0.06250000       0.06250000 </v>
   <v>       0.56250000       0.06250000       0.06250000 </v>
   <v>       0.06250000       0.56250000       0.06250000 </v>
   <v>       0.56250000       0.56250000       0.06250000 </v>
   <v>       0.06250000       0.06250000       0.56250000 </v>
   <v>       0.56250000       0.06250000       0.56250000 </v>
   <v>       0.06250000       0.56250000       0.56250000 </v>
   <v>       0.56250000       0.56250000       0.56250000 </v>
   <v>       0.06250000       0.31250000       0.31250000 </v>
   <v>       0.56250000       0.31250000       0.31250000 </v>
   <v>       0.06250000       0.81250000       0.31250000 </v>
   <v>       0.56250000       0.81250000       0.31250000 </v>
   <v>       0.06250000       0.31250000       0.81250000 </v>
   <v>       0.56250000       0.31250000       0.81250000 </v>
   <v>       0.06250000       0.81250000       0.81250000 </v>
   <v>       0.56250000       0.81250000       0.81250000 </v>
   <v>       0.31250000       0.06250000       0.31250000 </v>
   <v>       0.81250000       0.06250000       0.31250000 </v>
   <v>       0.31250000       0.56250000       0.31250000 </v>
   <v>       0.81250000       0.56250000       0.31250000 </v>
   <v>       0.31250000       0.06250000       0.81250000 </v>
   <v>       0.81250000       0.06250000       0.81250000 </v>
   <v>       0.31250000       0.56250000       0.81250000 </v>
   <v>       0.81250000       0.56250000       0.81250000 </v>
   <v>       0.31250000       0.31250000       0.06250000 </v>
   <v>       0.81250000       0.31250000       0.06250000 </v>
   <v>       0.31250000       0.81250000       0.06250000 </v>
   <v>       0.81250000       0.81250000       0.06250000 </v>
   <v>       0.31250000       0.31250000       0.56250000 </v>
   <v>       0.81250000       0.31250000       0.56250000 </v>
   <v>       0.31250000       0.81250000       0.56250000 </v>
   <v>       0.81250000       0.81250000       0.56250000 </v>
  </varray>
 </structure>
</modeling>
