
     Program PWSCF v.5.3.0 (svn rev. 11974) starts on  3Feb2016 at 13:46:12 

     This program is part of the open-source Quantum ESPRESSO suite
     for quantum simulation of materials; please cite
         "P. Giannozzi et al., J. Phys.:Condens. Matter 21 395502 (2009);
          URL http://www.quantum-espresso.org", 
     in publications or presentations arising from this work. More details at
     http://www.quantum-espresso.org/quote

     Parallel version (MPI), running on    16 processors
     R & G space division:  proc/nbgrp/npool/nimage =      16
     Reading input from Si.in

     Current dimensions of program PWSCF are:
     Max number of different atomic species (ntypx) = 10
     Max number of k-points (npk) =  40000
     Max angular momentum in pseudopotentials (lmaxx) =  3
               file Si.pbe-n-kjpaw_psl.0.1.UPF: wavefunction(s)  3S renormalized

     Subspace diagonalization in iterative solution of the eigenvalue problem:
     one sub-group per k-point group (pool) will be used
     scalapack distributed-memory algorithm (size of sub-group:  2*  2 procs)

 
     Parallelization info
     --------------------
     sticks:   dense  smooth     PW     G-vecs:    dense   smooth      PW
     Min         424     424    109                26332    26332    3467
     Max         425     425    110                26336    26336    3472
     Sum        6785    6785   1757               421349   421349   55515
 


     bravais-lattice index     =            0
     lattice parameter (alat)  =      20.6591  a.u.
     unit-cell volume          =    8817.2783 (a.u.)^3
     number of atoms/cell      =           64
     number of atomic types    =            1
     number of electrons       =       256.00
     number of Kohn-Sham states=          154
     kinetic-energy cutoff     =      50.0000  Ry
     charge density cutoff     =     200.0000  Ry
     convergence threshold     =      1.0E-09
     mixing beta               =       0.7000
     number of iterations used =            8  plain     mixing
     Exchange-correlation      =  SLA  PW   PBX  PBC ( 1  4  3  4 0 0)

     celldm(1)=  20.659106  celldm(2)=   0.000000  celldm(3)=   0.000000
     celldm(4)=   0.000000  celldm(5)=   0.000000  celldm(6)=   0.000000

     crystal axes: (cart. coord. in units of alat)
               a(1) = (   1.000000   0.000000   0.000000 )  
               a(2) = (   0.000000   1.000000   0.000000 )  
               a(3) = (   0.000000   0.000000   1.000000 )  

     reciprocal axes: (cart. coord. in units 2 pi/alat)
               b(1) = (  1.000000  0.000000  0.000000 )  
               b(2) = (  0.000000  1.000000  0.000000 )  
               b(3) = (  0.000000  0.000000  1.000000 )  


     PseudoPot. # 1 for Si read from file:
     /home/togo/espresso/pseudo/Si.pbe-n-kjpaw_psl.0.1.UPF
     MD5 check sum: b9d333a40e496bef61db012f150758bf
     Pseudo is Projector augmented-wave + core cor, Zval =  4.0
     Generated using "atomic" code by A. Dal Corso  v.5.0.2 svn rev. 9415
     Shape of augmentation charge: PSQ
     Using radial grid of 1141 points,  4 beta functions with: 
                l(1) =   0
                l(2) =   0
                l(3) =   1
                l(4) =   1
     Q(r) pseudized with 0 coefficients 


     atomic species   valence    mass     pseudopotential
        Si             4.00    28.08550     Si( 1.00)

      2 Sym. Ops. (no inversion) found



   Cartesian axes

     site n.     atom                  positions (alat units)
         1           Si  tau(   1) = (   0.4404043   0.4375000   0.4375000  )
         2           Si  tau(   2) = (   0.9375000   0.4375000   0.4375000  )
         3           Si  tau(   3) = (   0.4375000   0.9375000   0.4375000  )
         4           Si  tau(   4) = (   0.9375000   0.9375000   0.4375000  )
         5           Si  tau(   5) = (   0.4375000   0.4375000   0.9375000  )
         6           Si  tau(   6) = (   0.9375000   0.4375000   0.9375000  )
         7           Si  tau(   7) = (   0.4375000   0.9375000   0.9375000  )
         8           Si  tau(   8) = (   0.9375000   0.9375000   0.9375000  )
         9           Si  tau(   9) = (   0.4375000   0.1875000   0.1875000  )
        10           Si  tau(  10) = (   0.9375000   0.1875000   0.1875000  )
        11           Si  tau(  11) = (   0.4375000   0.6875000   0.1875000  )
        12           Si  tau(  12) = (   0.9375000   0.6875000   0.1875000  )
        13           Si  tau(  13) = (   0.4375000   0.1875000   0.6875000  )
        14           Si  tau(  14) = (   0.9375000   0.1875000   0.6875000  )
        15           Si  tau(  15) = (   0.4375000   0.6875000   0.6875000  )
        16           Si  tau(  16) = (   0.9375000   0.6875000   0.6875000  )
        17           Si  tau(  17) = (   0.1875000   0.4375000   0.1875000  )
        18           Si  tau(  18) = (   0.6875000   0.4375000   0.1875000  )
        19           Si  tau(  19) = (   0.1875000   0.9375000   0.1875000  )
        20           Si  tau(  20) = (   0.6875000   0.9375000   0.1875000  )
        21           Si  tau(  21) = (   0.1875000   0.4375000   0.6875000  )
        22           Si  tau(  22) = (   0.6875000   0.4375000   0.6875000  )
        23           Si  tau(  23) = (   0.1875000   0.9375000   0.6875000  )
        24           Si  tau(  24) = (   0.6875000   0.9375000   0.6875000  )
        25           Si  tau(  25) = (   0.1875000   0.1875000   0.4375000  )
        26           Si  tau(  26) = (   0.6875000   0.1875000   0.4375000  )
        27           Si  tau(  27) = (   0.1875000   0.6875000   0.4375000  )
        28           Si  tau(  28) = (   0.6875000   0.6875000   0.4375000  )
        29           Si  tau(  29) = (   0.1875000   0.1875000   0.9375000  )
        30           Si  tau(  30) = (   0.6875000   0.1875000   0.9375000  )
        31           Si  tau(  31) = (   0.1875000   0.6875000   0.9375000  )
        32           Si  tau(  32) = (   0.6875000   0.6875000   0.9375000  )
        33           Si  tau(  33) = (   0.0625000   0.0625000   0.0625000  )
        34           Si  tau(  34) = (   0.5625000   0.0625000   0.0625000  )
        35           Si  tau(  35) = (   0.0625000   0.5625000   0.0625000  )
        36           Si  tau(  36) = (   0.5625000   0.5625000   0.0625000  )
        37           Si  tau(  37) = (   0.0625000   0.0625000   0.5625000  )
        38           Si  tau(  38) = (   0.5625000   0.0625000   0.5625000  )
        39           Si  tau(  39) = (   0.0625000   0.5625000   0.5625000  )
        40           Si  tau(  40) = (   0.5654043   0.5625000   0.5625000  )
        41           Si  tau(  41) = (   0.0625000   0.3125000   0.3125000  )
        42           Si  tau(  42) = (   0.5625000   0.3125000   0.3125000  )
        43           Si  tau(  43) = (   0.0625000   0.8125000   0.3125000  )
        44           Si  tau(  44) = (   0.5625000   0.8125000   0.3125000  )
        45           Si  tau(  45) = (   0.0625000   0.3125000   0.8125000  )
        46           Si  tau(  46) = (   0.5625000   0.3125000   0.8125000  )
        47           Si  tau(  47) = (   0.0625000   0.8125000   0.8125000  )
        48           Si  tau(  48) = (   0.5625000   0.8125000   0.8125000  )
        49           Si  tau(  49) = (   0.3125000   0.0625000   0.3125000  )
        50           Si  tau(  50) = (   0.8125000   0.0625000   0.3125000  )
        51           Si  tau(  51) = (   0.3125000   0.5625000   0.3125000  )
        52           Si  tau(  52) = (   0.8125000   0.5625000   0.3125000  )
        53           Si  tau(  53) = (   0.3125000   0.0625000   0.8125000  )
        54           Si  tau(  54) = (   0.8125000   0.0625000   0.8125000  )
        55           Si  tau(  55) = (   0.3125000   0.5625000   0.8125000  )
        56           Si  tau(  56) = (   0.8125000   0.5625000   0.8125000  )
        57           Si  tau(  57) = (   0.3125000   0.3125000   0.0625000  )
        58           Si  tau(  58) = (   0.8125000   0.3125000   0.0625000  )
        59           Si  tau(  59) = (   0.3125000   0.8125000   0.0625000  )
        60           Si  tau(  60) = (   0.8125000   0.8125000   0.0625000  )
        61           Si  tau(  61) = (   0.3125000   0.3125000   0.5625000  )
        62           Si  tau(  62) = (   0.8125000   0.3125000   0.5625000  )
        63           Si  tau(  63) = (   0.3125000   0.8125000   0.5625000  )
        64           Si  tau(  64) = (   0.8125000   0.8125000   0.5625000  )

     number of k points=     3  gaussian smearing, width (Ry)=  0.0100
                       cart. coord. in units 2pi/alat
        k(    1) = (   0.2500000   0.2500000   0.2500000), wk =   0.5000000
        k(    2) = (  -0.2500000   0.2500000  -0.2500000), wk =   1.0000000
        k(    3) = (   0.2500000  -0.2500000  -0.2500000), wk =   0.5000000

     Dense  grid:   421349 G-vectors     FFT dimensions: (  96,  96,  96)

     Largest allocated arrays     est. size (Mb)     dimensions
        Kohn-Sham Wavefunctions         7.72 Mb     (    3285,  154)
        NL pseudopotentials            25.66 Mb     (    3285,  512)
        Each V/rho on FFT grid          0.84 Mb     (   55296)
        Each G-vector array             0.20 Mb     (   26336)
        G-vector shells                 0.01 Mb     (    1719)
     Largest temporary arrays     est. size (Mb)     dimensions
        Auxiliary wavefunctions        30.88 Mb     (    3285,  616)
        Each subspace H/S matrix        1.45 Mb     (     308,  308)
        Each <psi_i|beta_j> matrix      1.20 Mb     (     512,  154)
        Arrays for rho mixing           6.75 Mb     (   55296,    8)

     Check: negative/imaginary core charge=   -0.000001    0.000000

     Initial potential from superposition of free atoms

     starting charge  255.96421, renormalised to  256.00000
     Starting wfc are  256 randomized atomic wfcs
     Checking if some PAW data can be deallocated... 

     total cpu time spent up to now is       16.1 secs

     per-process dynamical memory:   115.9 Mb

     Self-consistent Calculation

     iteration #  1     ecut=    50.00 Ry     beta=0.70
     Davidson diagonalization with overlap
     ethr =  1.00E-02,  avg # of iterations =  3.0

     Threshold (ethr) on eigenvalues was too large:
     Diagonalizing with lowered threshold

     Davidson diagonalization with overlap
     ethr =  7.00E-04,  avg # of iterations =  1.0

     total cpu time spent up to now is       55.8 secs

     total energy              =   -2990.45714859 Ry
     Harris-Foulkes estimate   =   -2990.87675825 Ry
     estimated scf accuracy    <       1.77345839 Ry

     iteration #  2     ecut=    50.00 Ry     beta=0.70
     Davidson diagonalization with overlap
     ethr =  6.93E-04,  avg # of iterations =  1.0

     total cpu time spent up to now is       66.3 secs

     total energy              =   -2990.52384093 Ry
     Harris-Foulkes estimate   =   -2990.52769465 Ry
     estimated scf accuracy    <       0.07629351 Ry

     iteration #  3     ecut=    50.00 Ry     beta=0.70
     Davidson diagonalization with overlap
     ethr =  2.98E-05,  avg # of iterations = 10.0

     total cpu time spent up to now is       89.2 secs

     total energy              =   -2990.53080596 Ry
     Harris-Foulkes estimate   =   -2990.53160211 Ry
     estimated scf accuracy    <       0.00197458 Ry

     iteration #  4     ecut=    50.00 Ry     beta=0.70
     Davidson diagonalization with overlap
     ethr =  7.71E-07,  avg # of iterations =  9.3

     total cpu time spent up to now is      123.3 secs

     total energy              =   -2990.53064337 Ry
     Harris-Foulkes estimate   =   -2990.53293433 Ry
     estimated scf accuracy    <       0.00708374 Ry

     iteration #  5     ecut=    50.00 Ry     beta=0.70
     Davidson diagonalization with overlap
     ethr =  7.71E-07,  avg # of iterations =  4.0

     total cpu time spent up to now is      141.5 secs

     total energy              =   -2990.53171033 Ry
     Harris-Foulkes estimate   =   -2990.53183667 Ry
     estimated scf accuracy    <       0.00036794 Ry

     iteration #  6     ecut=    50.00 Ry     beta=0.70
     Davidson diagonalization with overlap
     ethr =  1.44E-07,  avg # of iterations =  2.3

     total cpu time spent up to now is      154.6 secs

     total energy              =   -2990.53177508 Ry
     Harris-Foulkes estimate   =   -2990.53179144 Ry
     estimated scf accuracy    <       0.00004768 Ry

     iteration #  7     ecut=    50.00 Ry     beta=0.70
     Davidson diagonalization with overlap
     ethr =  1.86E-08,  avg # of iterations =  2.3

     total cpu time spent up to now is      168.3 secs

     total energy              =   -2990.53178365 Ry
     Harris-Foulkes estimate   =   -2990.53178534 Ry
     estimated scf accuracy    <       0.00000391 Ry

     iteration #  8     ecut=    50.00 Ry     beta=0.70
     Davidson diagonalization with overlap
     ethr =  1.53E-09,  avg # of iterations =  3.0

     total cpu time spent up to now is      184.8 secs

     total energy              =   -2990.53178475 Ry
     Harris-Foulkes estimate   =   -2990.53178494 Ry
     estimated scf accuracy    <       0.00000043 Ry

     iteration #  9     ecut=    50.00 Ry     beta=0.70
     Davidson diagonalization with overlap
     ethr =  1.67E-10,  avg # of iterations =  3.0

     total cpu time spent up to now is      199.8 secs

     total energy              =   -2990.53178476 Ry
     Harris-Foulkes estimate   =   -2990.53178486 Ry
     estimated scf accuracy    <       0.00000017 Ry

     iteration # 10     ecut=    50.00 Ry     beta=0.70
     Davidson diagonalization with overlap
     ethr =  6.45E-11,  avg # of iterations =  3.0

     total cpu time spent up to now is      215.4 secs

     total energy              =   -2990.53178474 Ry
     Harris-Foulkes estimate   =   -2990.53178480 Ry
     estimated scf accuracy    <       0.00000006 Ry

     iteration # 11     ecut=    50.00 Ry     beta=0.70
     Davidson diagonalization with overlap
     ethr =  2.37E-11,  avg # of iterations =  2.0

     total cpu time spent up to now is      228.5 secs

     total energy              =   -2990.53178476 Ry
     Harris-Foulkes estimate   =   -2990.53178475 Ry
     estimated scf accuracy    <          1.8E-09 Ry

     iteration # 12     ecut=    50.00 Ry     beta=0.70
     Davidson diagonalization with overlap
     ethr =  7.06E-13,  avg # of iterations =  3.0

     total cpu time spent up to now is      249.1 secs

     total energy              =   -2990.53178476 Ry
     Harris-Foulkes estimate   =   -2990.53178476 Ry
     estimated scf accuracy    <          1.9E-09 Ry

     iteration # 13     ecut=    50.00 Ry     beta=0.70
     Davidson diagonalization with overlap
     ethr =  7.06E-13,  avg # of iterations =  2.3

     total cpu time spent up to now is      262.9 secs

     End of self-consistent calculation

          k = 0.2500 0.2500 0.2500 ( 52563 PWs)   bands (ev):

    -5.6250  -5.1009  -5.0962  -5.0918  -4.6011  -4.5966  -4.5924  -4.1630
    -4.0682  -4.0633  -4.0587  -3.6575  -3.6493  -3.6469  -3.6469  -3.6448
    -3.6367  -3.4571  -3.4548  -3.4523  -2.9633  -2.9585  -2.9538  -2.5942
    -2.5893  -2.5844  -2.4286  -2.4235  -2.4208  -2.4207  -2.4181  -2.4126
    -0.8834  -0.8818  -0.8780  -0.8780  -0.8748  -0.8737  -0.7861  -0.7802
    -0.7745  -0.6649  -0.6624  -0.6591  -0.5771  -0.5763  -0.5752   0.1262
     0.2035   0.2065   0.2107   0.2108   0.2148   0.2183   1.0841   1.0853
     1.0867   1.4166   1.4183   1.4201   2.0241   2.0282   2.0292   2.0292
     2.0301   2.0342   2.0878   2.0880   2.0885   2.6375   2.6402   2.6427
     2.7371   2.7426   2.7433   2.7433   2.7440   2.7491   2.7937   2.7962
     2.7994   3.1015   3.1070   3.1075   3.1076   3.1081   3.1137   3.3705
     3.3719   3.3720   3.3843   3.3874   3.3879   3.7321   3.7349   3.7373
     3.7535   3.7562   3.7594   3.8386   3.8397   3.8404   4.1097   4.1125
     4.1139   4.1143   4.1157   4.1191   4.1526   4.1541   4.1543   4.4130
     4.4707   4.4710   4.4711   4.7136   4.7147   4.7155   4.7779   4.7786
     4.7795   4.9363   4.9364   5.2426   5.2436   5.2444   5.7239   5.7241
     6.9357   6.9363   6.9366   7.3746   7.3768   7.3788   7.5987   7.8596
     7.8619   7.8639   7.9885   7.9918   7.9949   8.1478   8.1516   8.1549
     8.1687   8.1690   8.1700   8.3970   8.3998   8.4025   8.4026   8.4054
     8.4076   8.4481

          k =-0.2500 0.2500-0.2500 ( 52563 PWs)   bands (ev):

    -5.6250  -5.1005  -5.0962  -5.0922  -4.6007  -4.5966  -4.5928  -4.1630
    -4.0675  -4.0633  -4.0593  -3.6562  -3.6493  -3.6470  -3.6468  -3.6447
    -3.6382  -3.4599  -3.4548  -3.4494  -2.9620  -2.9585  -2.9550  -2.5945
    -2.5891  -2.5843  -2.4294  -2.4227  -2.4210  -2.4206  -2.4189  -2.4117
    -0.8863  -0.8801  -0.8781  -0.8780  -0.8762  -0.8708  -0.7848  -0.7805
    -0.7755  -0.6659  -0.6622  -0.6588  -0.5818  -0.5761  -0.5704   0.1263
     0.2032   0.2090   0.2103   0.2111   0.2124   0.2183   1.0804   1.0854
     1.0903   1.4169   1.4183   1.4199   2.0251   2.0264   2.0290   2.0296
     2.0320   2.0332   2.0866   2.0882   2.0897   2.6377   2.6401   2.6424
     2.7389   2.7413   2.7431   2.7434   2.7452   2.7477   2.7930   2.7963
     2.7997   3.1022   3.1050   3.1069   3.1083   3.1101   3.1129   3.3699
     3.3718   3.3738   3.3848   3.3861   3.3874   3.7307   3.7347   3.7381
     3.7515   3.7568   3.7616   3.8376   3.8395   3.8415   4.1052   4.1115
     4.1140   4.1145   4.1170   4.1233   4.1516   4.1535   4.1562   4.4131
     4.4685   4.4710   4.4735   4.7125   4.7144   4.7166   4.7746   4.7787
     4.7834   4.9361   4.9363   5.2407   5.2434   5.2463   5.7238   5.7239
     6.9323   6.9364   6.9402   7.3722   7.3768   7.3814   7.5987   7.8581
     7.8620   7.8657   7.9870   7.9917   7.9964   8.1472   8.1515   8.1548
     8.1662   8.1691   8.1729   8.3955   8.3982   8.4024   8.4026   8.4064
     8.4091   8.4482

          k = 0.2500-0.2500-0.2500 ( 52563 PWs)   bands (ev):

    -5.6251  -5.0995  -5.0962  -5.0932  -4.6000  -4.5966  -4.5935  -4.1632
    -4.0669  -4.0633  -4.0596  -3.6494  -3.6494  -3.6470  -3.6469  -3.6446
    -3.6446  -3.4549  -3.4548  -3.4548  -2.9639  -2.9585  -2.9532  -2.5893
    -2.5892  -2.5889  -2.4237  -2.4219  -2.4208  -2.4208  -2.4195  -2.4179
    -0.8820  -0.8792  -0.8782  -0.8780  -0.8771  -0.8745  -0.7809  -0.7803
    -0.7803  -0.6626  -0.6624  -0.6619  -0.5801  -0.5762  -0.5717   0.1262
     0.2060   0.2078   0.2107   0.2107   0.2140   0.2153   1.0825   1.0853
     1.0883   1.4159   1.4182   1.4208   2.0260   2.0272   2.0286   2.0293
     2.0310   2.0322   2.0859   2.0882   2.0910   2.6385   2.6402   2.6417
     2.7379   2.7384   2.7433   2.7433   2.7473   2.7476   2.7955   2.7975
     2.7976   3.1034   3.1065   3.1076   3.1076   3.1087   3.1118   3.3696
     3.3717   3.3734   3.3838   3.3869   3.3886   3.7332   3.7349   3.7360
     3.7546   3.7562   3.7589   3.8371   3.8395   3.8418   4.1100   4.1129
     4.1141   4.1144   4.1157   4.1188   4.1509   4.1537   4.1561   4.4132
     4.4679   4.4709   4.4736   4.7117   4.7145   4.7175   4.7747   4.7786
     4.7830   4.9361   4.9363   5.2399   5.2435   5.2473   5.7238   5.7240
     6.9356   6.9363   6.9368   7.3759   7.3768   7.3776   7.5988   7.8618
     7.8619   7.8620   7.9915   7.9918   7.9919   8.1490   8.1517   8.1535
     8.1665   8.1688   8.1720   8.3986   8.4013   8.4025   8.4026   8.4039
     8.4056   8.4486

     the Fermi energy is     6.3260 ev

!    total energy              =   -2990.53178476 Ry
     Harris-Foulkes estimate   =   -2990.53178476 Ry
     estimated scf accuracy    <          4.2E-10 Ry

     total all-electron energy =    -37124.667338 Ry

     The total energy is the sum of the following terms:

     one-electron contribution =     178.60598351 Ry
     hartree contribution      =      35.70176447 Ry
     xc contribution           =    -391.44197332 Ry
     ewald contribution        =    -534.00628754 Ry
     one-center paw contrib.   =   -2279.39127189 Ry
     smearing contrib. (-TS)   =       0.00000000 Ry

     convergence has been achieved in  13 iterations

     Forces acting on atoms (Ry/au):

     atom    1 type  1   force =    -0.01196197    0.00270678    0.00270678
     atom    2 type  1   force =     0.00001016    0.00003801    0.00003801
     atom    3 type  1   force =    -0.00000421    0.00003740    0.00005180
     atom    4 type  1   force =     0.00002093    0.00002680    0.00002729
     atom    5 type  1   force =    -0.00000421    0.00005180    0.00003740
     atom    6 type  1   force =     0.00002093    0.00002729    0.00002680
     atom    7 type  1   force =    -0.00022037    0.00002788    0.00002788
     atom    8 type  1   force =     0.00000277    0.00003090    0.00003090
     atom    9 type  1   force =    -0.00027397    0.00008642    0.00008642
     atom   10 type  1   force =    -0.00002120   -0.00002100   -0.00002100
     atom   11 type  1   force =    -0.00058280    0.00005824   -0.00014700
     atom   12 type  1   force =     0.00002818   -0.00001950   -0.00003539
     atom   13 type  1   force =    -0.00058280   -0.00014700    0.00005824
     atom   14 type  1   force =     0.00002818   -0.00003539   -0.00001950
     atom   15 type  1   force =     0.00328982   -0.00259325   -0.00259325
     atom   16 type  1   force =    -0.00001227   -0.00004787   -0.00004787
     atom   17 type  1   force =     0.00025947   -0.00013765    0.00025183
     atom   18 type  1   force =     0.00017748   -0.00016517   -0.00019400
     atom   19 type  1   force =     0.00002152   -0.00004042   -0.00004460
     atom   20 type  1   force =     0.00029841   -0.00003760    0.00010505
     atom   21 type  1   force =     0.00021963    0.00007156   -0.00018939
     atom   22 type  1   force =     0.00416738   -0.00259619    0.00293930
     atom   23 type  1   force =     0.00006911   -0.00001481    0.00010199
     atom   24 type  1   force =    -0.00001795   -0.00002838   -0.00002619
     atom   25 type  1   force =     0.00025947    0.00025183   -0.00013765
     atom   26 type  1   force =     0.00017748   -0.00019400   -0.00016517
     atom   27 type  1   force =     0.00021963   -0.00018939    0.00007156
     atom   28 type  1   force =     0.00416738    0.00293930   -0.00259619
     atom   29 type  1   force =     0.00002152   -0.00004460   -0.00004042
     atom   30 type  1   force =     0.00029841    0.00010505   -0.00003760
     atom   31 type  1   force =     0.00006911    0.00010199   -0.00001481
     atom   32 type  1   force =    -0.00001795   -0.00002619   -0.00002838
     atom   33 type  1   force =     0.00000349    0.00003208    0.00003208
     atom   34 type  1   force =    -0.00022083    0.00002820    0.00002820
     atom   35 type  1   force =     0.00001937    0.00002715    0.00002564
     atom   36 type  1   force =    -0.00000555    0.00004936    0.00003867
     atom   37 type  1   force =     0.00001937    0.00002564    0.00002715
     atom   38 type  1   force =    -0.00000555    0.00003867    0.00004936
     atom   39 type  1   force =     0.00000968    0.00003762    0.00003762
     atom   40 type  1   force =    -0.01207950    0.00247965    0.00247965
     atom   41 type  1   force =    -0.00001202   -0.00004779   -0.00004779
     atom   42 type  1   force =     0.00340054   -0.00281785   -0.00281785
     atom   43 type  1   force =     0.00002649   -0.00003480   -0.00001721
     atom   44 type  1   force =    -0.00058839   -0.00015224    0.00006376
     atom   45 type  1   force =     0.00002649   -0.00001721   -0.00003480
     atom   46 type  1   force =    -0.00058839    0.00006376   -0.00015224
     atom   47 type  1   force =    -0.00002073   -0.00002191   -0.00002191
     atom   48 type  1   force =    -0.00026948    0.00008195    0.00008195
     atom   49 type  1   force =    -0.00001610   -0.00002810   -0.00002594
     atom   50 type  1   force =     0.00007124   -0.00001772    0.00010675
     atom   51 type  1   force =     0.00404370   -0.00236736    0.00270799
     atom   52 type  1   force =     0.00022529    0.00007564   -0.00019489
     atom   53 type  1   force =     0.00029601   -0.00003651    0.00010423
     atom   54 type  1   force =     0.00002095   -0.00003950   -0.00004641
     atom   55 type  1   force =     0.00017339   -0.00016094   -0.00019000
     atom   56 type  1   force =     0.00026439   -0.00014270    0.00026034
     atom   57 type  1   force =    -0.00001610   -0.00002594   -0.00002810
     atom   58 type  1   force =     0.00007124    0.00010675   -0.00001772
     atom   59 type  1   force =     0.00029601    0.00010423   -0.00003651
     atom   60 type  1   force =     0.00002095   -0.00004641   -0.00003950
     atom   61 type  1   force =     0.00404370    0.00270799   -0.00236736
     atom   62 type  1   force =     0.00022529   -0.00019489    0.00007564
     atom   63 type  1   force =     0.00017339   -0.00019000   -0.00016094
     atom   64 type  1   force =     0.00026439    0.00026034   -0.00014270

     Total force =     0.022258     Total SCF correction =     0.000040

     Writing output data file pwscf.save
 
     init_run     :      8.92s CPU     15.52s WALL (       1 calls)
     electrons    :    237.33s CPU    247.02s WALL (       1 calls)
     forces       :      3.42s CPU      3.56s WALL (       1 calls)

     Called by init_run:
     wfcinit      :      6.86s CPU     13.16s WALL (       1 calls)
     potinit      :      0.23s CPU      0.24s WALL (       1 calls)

     Called by electrons:
     c_bands      :    203.07s CPU    210.37s WALL (      14 calls)
     sum_band     :     19.49s CPU     20.67s WALL (      14 calls)
     v_of_rho     :      0.71s CPU      0.72s WALL (      14 calls)
     newd         :      1.45s CPU      1.48s WALL (      14 calls)
     PAW_pot      :      2.31s CPU      2.31s WALL (      14 calls)
     mix_rho      :      0.38s CPU      0.38s WALL (      14 calls)

     Called by c_bands:
     init_us_2    :      1.81s CPU      1.82s WALL (      90 calls)
     cegterg      :    198.86s CPU    203.65s WALL (      42 calls)

     Called by sum_band:
     sum_band:bec :      0.04s CPU      0.04s WALL (      42 calls)
     addusdens    :      1.67s CPU      1.82s WALL (      14 calls)

     Called by *egterg:
     h_psi        :     90.26s CPU     90.42s WALL (     193 calls)
     s_psi        :     22.81s CPU     22.82s WALL (     193 calls)
     g_psi        :      0.91s CPU      0.91s WALL (     148 calls)
     cdiaghg      :     30.86s CPU     30.86s WALL (     187 calls)

     Called by h_psi:
     add_vuspsi   :     22.74s CPU     22.75s WALL (     193 calls)

     General routines
     calbec       :     35.67s CPU     35.71s WALL (     247 calls)
     fft          :      0.50s CPU      0.51s WALL (     195 calls)
     fftw         :     44.19s CPU     44.46s WALL (   42786 calls)
     davcio       :      0.00s CPU      0.01s WALL (       3 calls)
 
     Parallel routines
     fft_scatter  :     12.12s CPU     11.73s WALL (   42981 calls)
 
     PWSCF        :  4m 9.96s CPU     4m50.85s WALL

 
   This run was terminated on:  13:51: 3   3Feb2016            

=------------------------------------------------------------------------------=
   JOB DONE.
=------------------------------------------------------------------------------=
