<?xml version="1.0" encoding="ISO-8859-1"?>
<modeling>
 <generator>
  <i name="program" type="string">vasp </i>
  <i name="version" type="string">5.4.1  </i>
  <i name="subversion" type="string">05Feb16 (build Mar 26 2016 11:58:25) complex                          parallel </i>
  <i name="platform" type="string">IFC91_ompi </i>
  <i name="date" type="string">2017 03 12 </i>
  <i name="time" type="string">12:16:56 </i>
 </generator>
 <incar>
  <i type="string" name="PREC">accurate</i>
  <i type="int" name="IALGO">    38</i>
  <i type="logical" name="ADDGRID"> T  </i>
  <i type="int" name="NELMIN">     5</i>
  <i type="int" name="IBRION">    -1</i>
  <i name="EDIFF">      0.00000001</i>
  <i name="ENCUT">    300.00000000</i>
  <i type="logical" name="LREAL"> F  </i>
  <i type="int" name="ISMEAR">     0</i>
  <i name="SIGMA">      0.05000000</i>
  <i type="logical" name="LWAVE"> F  </i>
  <i type="logical" name="LCHARG"> F  </i>
  <v type="int" name="KPOINT_BSE">    -1     0     0     0</v>
 </incar>
 <kpoints>
  <generation param="Monkhorst-Pack">
   <v type="int" name="divisions">       2        2        2 </v>
   <v name="usershift">      0.00000000       0.00000000       0.00000000 </v>
   <v name="genvec1">      0.50000000       0.00000000       0.00000000 </v>
   <v name="genvec2">      0.00000000       0.50000000       0.00000000 </v>
   <v name="genvec3">      0.00000000       0.00000000       0.50000000 </v>
   <v name="shift">      0.50000000       0.50000000       0.50000000 </v>
  </generation>
  <varray name="kpointlist" >
   <v>       0.25000000       0.25000000       0.25000000 </v>
   <v>      -0.25000000       0.25000000       0.25000000 </v>
   <v>       0.25000000      -0.25000000       0.25000000 </v>
   <v>      -0.25000000      -0.25000000       0.25000000 </v>
  </varray>
  <varray name="weights" >
   <v>       0.25000000 </v>
   <v>       0.25000000 </v>
   <v>       0.25000000 </v>
   <v>       0.25000000 </v>
  </varray>
 </kpoints>
 <parameters>
  <separator name="general" >
   <i type="string" name="SYSTEM">unknown system</i>
   <i type="logical" name="LCOMPAT"> F  </i>
  </separator>
  <separator name="electronic" >
   <i type="string" name="PREC">accura</i>
   <i name="ENMAX">    300.00000000</i>
   <i name="ENAUG">    322.06900000</i>
   <i name="EDIFF">      0.00000001</i>
   <i type="int" name="IALGO">    38</i>
   <i type="int" name="IWAVPR">    10</i>
   <i type="int" name="NBANDS">   164</i>
   <i name="NELECT">    256.00000000</i>
   <i type="int" name="TURBO">     0</i>
   <i type="int" name="IRESTART">     0</i>
   <i type="int" name="NREBOOT">     0</i>
   <i type="int" name="NMIN">     0</i>
   <i name="EREF">      0.00000000</i>
   <separator name="electronic smearing" >
    <i type="int" name="ISMEAR">     0</i>
    <i name="SIGMA">      0.05000000</i>
    <i name="KSPACING">      0.50000000</i>
    <i type="logical" name="KGAMMA"> T  </i>
   </separator>
   <separator name="electronic projectors" >
    <i type="logical" name="LREAL"> F  </i>
    <v name="ROPT">      0.00000000</v>
    <i type="int" name="LMAXPAW">  -100</i>
    <i type="int" name="LMAXMIX">     2</i>
    <i type="logical" name="NLSPLINE"> F  </i>
   </separator>
   <separator name="electronic startup" >
    <i type="int" name="ISTART">     0</i>
    <i type="int" name="ICHARG">     2</i>
    <i type="int" name="INIWAV">     1</i>
   </separator>
   <separator name="electronic spin" >
    <i type="int" name="ISPIN">     1</i>
    <i type="logical" name="LNONCOLLINEAR"> F  </i>
    <v name="MAGMOM">      1.00000000      1.00000000      1.00000000      1.00000000      1.00000000      1.00000000      1.00000000      1.00000000      1.00000000      1.00000000      1.00000000      1.00000000      1.00000000      1.00000000      1.00000000      1.00000000      1.00000000      1.00000000      1.00000000      1.00000000
      1.00000000      1.00000000      1.00000000      1.00000000      1.00000000      1.00000000      1.00000000      1.00000000      1.00000000      1.00000000      1.00000000      1.00000000      1.00000000      1.00000000      1.00000000      1.00000000      1.00000000      1.00000000      1.00000000      1.00000000
      1.00000000      1.00000000      1.00000000      1.00000000      1.00000000      1.00000000      1.00000000      1.00000000      1.00000000      1.00000000      1.00000000      1.00000000      1.00000000      1.00000000      1.00000000      1.00000000      1.00000000      1.00000000      1.00000000      1.00000000
      1.00000000      1.00000000      1.00000000      1.00000000</v>
    <i name="NUPDOWN">     -1.00000000</i>
    <i type="logical" name="LSORBIT"> F  </i>
    <v name="SAXIS">      0.00000000      0.00000000      1.00000000</v>
    <i type="logical" name="LSPIRAL"> F  </i>
    <v name="QSPIRAL">      0.00000000      0.00000000      0.00000000</v>
    <i type="logical" name="LZEROZ"> F  </i>
   </separator>
   <separator name="electronic exchange-correlation" >
    <i type="logical" name="LASPH"> F  </i>
    <i type="logical" name="LMETAGGA"> F  </i>
   </separator>
   <separator name="electronic convergence" >
    <i type="int" name="NELM">    60</i>
    <i type="int" name="NELMDL">    -5</i>
    <i type="int" name="NELMIN">     5</i>
    <i name="ENINI">    300.00000000</i>
    <separator name="electronic convergence detail" >
     <i type="logical" name="LDIAG"> T  </i>
     <i type="logical" name="LSUBROT"> F  </i>
     <i name="WEIMIN">      0.00000000</i>
     <i name="EBREAK">      0.00000000</i>
     <i name="DEPER">      0.30000000</i>
     <i type="int" name="NRMM">     4</i>
     <i name="TIME">      0.40000000</i>
    </separator>
   </separator>
   <separator name="electronic mixer" >
    <i name="AMIX">      0.40000000</i>
    <i name="BMIX">      1.00000000</i>
    <i name="AMIN">      0.10000000</i>
    <i name="AMIX_MAG">      1.60000000</i>
    <i name="BMIX_MAG">      1.00000000</i>
    <separator name="electronic mixer details" >
     <i type="int" name="IMIX">     4</i>
     <i type="logical" name="MIXFIRST"> F  </i>
     <i type="int" name="MAXMIX">   -45</i>
     <i name="WC">    100.00000000</i>
     <i type="int" name="INIMIX">     1</i>
     <i type="int" name="MIXPRE">     1</i>
     <i type="int" name="MREMOVE">     5</i>
    </separator>
   </separator>
   <separator name="electronic dipolcorrection" >
    <i type="logical" name="LDIPOL"> F  </i>
    <i type="logical" name="LMONO"> F  </i>
    <i type="int" name="IDIPOL">     0</i>
    <i name="EPSILON">      1.00000000</i>
    <v name="DIPOL">   -100.00000000   -100.00000000   -100.00000000</v>
    <i name="EFIELD">      0.00000000</i>
   </separator>
  </separator>
  <separator name="grids" >
   <i type="int" name="NGX">    64</i>
   <i type="int" name="NGY">    64</i>
   <i type="int" name="NGZ">    64</i>
   <i type="int" name="NGXF">   128</i>
   <i type="int" name="NGYF">   128</i>
   <i type="int" name="NGZF">   128</i>
   <i type="logical" name="ADDGRID"> T  </i>
  </separator>
  <separator name="ionic" >
   <i type="int" name="NSW">     0</i>
   <i type="int" name="IBRION">    -1</i>
   <i type="int" name="ISIF">     2</i>
   <i name="PSTRESS">      0.00000000</i>
   <i name="EDIFFG">      0.00000010</i>
   <i type="int" name="NFREE">     0</i>
   <i name="POTIM">      0.50000000</i>
   <i name="SMASS">     -3.00000000</i>
   <i name="SCALEE">      1.00000000</i>
  </separator>
  <separator name="ionic md" >
   <i name="TEBEG">      0.00010000</i>
   <i name="TEEND">      0.00010000</i>
   <i type="int" name="NBLOCK">     1</i>
   <i type="int" name="KBLOCK">     1</i>
   <i type="int" name="NPACO">   256</i>
   <i name="APACO">     16.00000000</i>
  </separator>
  <separator name="symmetry" >
   <i type="int" name="ISYM">     2</i>
   <i name="SYMPREC">      0.00001000</i>
  </separator>
  <separator name="dos" >
   <i type="logical" name="LORBIT"> F  </i>
   <v name="RWIGS">     -1.00000000</v>
   <i type="int" name="NEDOS">   301</i>
   <i name="EMIN">     10.00000000</i>
   <i name="EMAX">    -10.00000000</i>
   <i name="EFERMI">      0.00000000</i>
  </separator>
  <separator name="writing" >
   <i type="int" name="NWRITE">     2</i>
   <i type="logical" name="LWAVE"> F  </i>
   <i type="logical" name="LCHARG"> F  </i>
   <i type="logical" name="LPARD"> F  </i>
   <i type="logical" name="LVTOT"> F  </i>
   <i type="logical" name="LVHAR"> F  </i>
   <i type="logical" name="LELF"> F  </i>
   <i type="logical" name="LOPTICS"> F  </i>
   <v name="STM">      0.00000000      0.00000000      0.00000000      0.00000000      0.00000000      0.00000000      0.00000000</v>
  </separator>
  <separator name="performance" >
   <i type="int" name="NPAR">     4</i>
   <i type="int" name="NSIM">     4</i>
   <i type="int" name="NBLK">    -1</i>
   <i type="logical" name="LPLANE"> T  </i>
   <i type="logical" name="LSCALAPACK"> T  </i>
   <i type="logical" name="LSCAAWARE"> F  </i>
   <i type="logical" name="LSCALU"> F  </i>
   <i type="logical" name="LASYNC"> F  </i>
   <i type="logical" name="LORBITALREAL"> F  </i>
  </separator>
  <separator name="miscellaneous" >
   <i type="int" name="IDIOT">     3</i>
   <i type="logical" name="LMUSIC"> F  </i>
   <v name="POMASS">     28.08500000</v>
   <v name="DARWINR">      0.00000000</v>
   <v name="DARWINV">      1.00000000</v>
   <i type="logical" name="LCORR"> T  </i>
  </separator>
  <i type="logical" name="GGA_COMPAT"> T  </i>
  <i type="logical" name="LBERRY"> F  </i>
  <i type="int" name="ICORELEVEL">     0</i>
  <i type="logical" name="LDAU"> F  </i>
  <i type="int" name="I_CONSTRAINED_M">     0</i>
  <separator name="electronic exchange-correlation" >
   <i type="string" name="GGA">--</i>
   <i type="int" name="VOSKOWN">     0</i>
   <i type="logical" name="LHFCALC"> F  </i>
   <i type="string" name="PRECFOCK"></i>
   <i type="logical" name="LSYMGRAD"> F  </i>
   <i type="logical" name="LHFONE"> F  </i>
   <i type="logical" name="LRHFCALC"> F  </i>
   <i type="logical" name="LTHOMAS"> F  </i>
   <i type="logical" name="LMODELHF"> F  </i>
   <i name="ENCUT4O">     -1.00000000</i>
   <i type="int" name="EXXOEP">     0</i>
   <i type="int" name="FOURORBIT">     0</i>
   <i name="AEXX">      0.00000000</i>
   <i name="HFALPHA">      0.00000000</i>
   <i name="MCALPHA">      0.00000000</i>
   <i name="ALDAX">      1.00000000</i>
   <i name="AGGAX">      1.00000000</i>
   <i name="ALDAC">      1.00000000</i>
   <i name="AGGAC">      1.00000000</i>
   <i type="int" name="NKREDX">     1</i>
   <i type="int" name="NKREDY">     1</i>
   <i type="int" name="NKREDZ">     1</i>
   <i type="logical" name="SHIFTRED"> F  </i>
   <i type="logical" name="ODDONLY"> F  </i>
   <i type="logical" name="EVENONLY"> F  </i>
   <i type="int" name="LMAXFOCK">     0</i>
   <i type="int" name="NMAXFOCKAE">     0</i>
   <i type="logical" name="LFOCKAEDFT"> F  </i>
   <i name="HFSCREEN">      0.00000000</i>
   <i name="HFSCREENC">      0.00000000</i>
   <i type="int" name="NBANDSGWLOW">     0</i>
  </separator>
  <separator name="vdW DFT" >
   <i type="logical" name="LUSE_VDW"> F  </i>
   <i name="Zab_VDW">     -0.84910000</i>
   <i name="PARAM1">      0.12340000</i>
   <i name="PARAM2">      1.00000000</i>
   <i name="PARAM3">      0.00000000</i>
  </separator>
  <separator name="model GW" >
   <i type="int" name="MODEL_GW">     0</i>
   <i name="MODEL_EPS0">     12.24990743</i>
   <i name="MODEL_ALPHA">      1.00000000</i>
  </separator>
  <separator name="linear response parameters" >
   <i type="logical" name="LEPSILON"> F  </i>
   <i type="logical" name="LRPA"> F  </i>
   <i type="logical" name="LNABLA"> F  </i>
   <i type="logical" name="LVEL"> F  </i>
   <i type="int" name="KINTER">     0</i>
   <i name="CSHIFT">      0.10000000</i>
   <i name="OMEGAMAX">     -1.00000000</i>
   <i name="DEG_THRESHOLD">      0.00200000</i>
  </separator>
  <separator name="orbital magnetization" >
   <i type="logical" name="NUCIND"> F  </i>
   <v name="MAGPOS">      0.00000000      0.00000000      0.00000000</v>
   <i type="logical" name="LNICSALL"> T  </i>
   <i type="logical" name="ORBITALMAG"> F  </i>
   <i type="logical" name="LMAGBLOCH"> F  </i>
   <i type="logical" name="LCHIMAG"> F  </i>
   <i type="logical" name="LGAUGE"> T  </i>
   <i type="int" name="MAGATOM">     0</i>
   <v name="MAGDIPOL">      0.00000000      0.00000000      0.00000000</v>
   <v name="AVECCONST">      0.00000000      0.00000000      0.00000000</v>
  </separator>
  <separator name="response functions" >
   <i type="logical" name="LADDER"> F  </i>
   <i type="logical" name="LFXC"> F  </i>
   <i type="logical" name="LHARTREE"> T  </i>
   <i type="int" name="IBSE">     0</i>
   <v type="int" name="KPOINT">    -1     0     0     0</v>
   <i type="logical" name="LTCTE"> F  </i>
   <i type="logical" name="LTETE"> F  </i>
   <i type="logical" name="LTRIPLET"> F  </i>
   <i type="logical" name="LFXCEPS"> F  </i>
   <i type="logical" name="LFXHEG"> F  </i>
   <i type="int" name="NATURALO">     0</i>
   <i type="logical" name="L2ORDER"> F  </i>
   <i type="logical" name="LUSEW"> F  </i>
   <i name="ENCUTGW">     -2.00000000</i>
   <i name="ENCUTGWSOFT">     -2.00000000</i>
   <i name="ENCUTLF">     -1.00000000</i>
   <i type="int" name="LMAXMP2">    -1</i>
   <i name="SCISSOR">      0.00000000</i>
   <i type="int" name="NOMEGA">     0</i>
   <i type="int" name="NOMEGAR">     0</i>
   <i type="int" name="NBANDSGW">    -1</i>
   <i type="int" name="NBANDSO">    -1</i>
   <i type="int" name="NBANDSV">    -1</i>
   <i type="int" name="NELM">     1</i>
   <i type="int" name="NELMHF">     1</i>
   <i type="int" name="DIM">     3</i>
   <i type="int" name="ANTIRES">     0</i>
   <i name="OMEGAMAX">    -30.00000000</i>
   <i name="OMEGAMIN">    -30.00000000</i>
   <i name="OMEGATL">   -200.00000000</i>
   <i type="int" name="OMEGAGRID">     0</i>
   <i name="CSHIFT">     -0.10000000</i>
   <i type="logical" name="SELFENERGY"> F  </i>
   <i type="logical" name="LSPECTRAL"> F  </i>
   <i type="logical" name="LSPECTRALGW"> F  </i>
   <i type="logical" name="LSINGLES"> F  </i>
   <i type="logical" name="LFERMIGW"> F  </i>
   <i type="logical" name="ODDONLYGW"> F  </i>
   <i type="logical" name="EVENONLYGW"> F  </i>
   <i type="int" name="NKREDLFX">     1</i>
   <i type="int" name="NKREDLFY">     1</i>
   <i type="int" name="NKREDLFZ">     1</i>
   <i type="int" name="MAXMEM">  1800</i>
   <i type="int" name="TELESCOPE">     0</i>
   <i type="int" name="TAUPAR">     1</i>
   <i type="int" name="OMEGAPAR">    -1</i>
   <i name="LAMBDA">      1.00000000</i>
  </separator>
  <separator name="External order field" >
   <i name="OFIELD_KAPPA">      0.00000000</i>
   <v name="OFIELD_K">      0.00000000      0.00000000      0.00000000</v>
   <i name="OFIELD_Q6_NEAR">      0.00000000</i>
   <i name="OFIELD_Q6_FAR">      0.00000000</i>
   <i name="OFIELD_A">      0.00000000</i>
  </separator>
 </parameters>
 <atominfo>
  <atoms>      64 </atoms>
  <types>       1 </types>
  <array name="atoms" >
   <dimension dim="1">ion</dimension>
   <field type="string">element</field>
   <field type="int">atomtype</field>
   <set>
    <rc><c>Si</c><c>   1</c></rc>
    <rc><c>Si</c><c>   1</c></rc>
    <rc><c>Si</c><c>   1</c></rc>
    <rc><c>Si</c><c>   1</c></rc>
    <rc><c>Si</c><c>   1</c></rc>
    <rc><c>Si</c><c>   1</c></rc>
    <rc><c>Si</c><c>   1</c></rc>
    <rc><c>Si</c><c>   1</c></rc>
    <rc><c>Si</c><c>   1</c></rc>
    <rc><c>Si</c><c>   1</c></rc>
    <rc><c>Si</c><c>   1</c></rc>
    <rc><c>Si</c><c>   1</c></rc>
    <rc><c>Si</c><c>   1</c></rc>
    <rc><c>Si</c><c>   1</c></rc>
    <rc><c>Si</c><c>   1</c></rc>
    <rc><c>Si</c><c>   1</c></rc>
    <rc><c>Si</c><c>   1</c></rc>
    <rc><c>Si</c><c>   1</c></rc>
    <rc><c>Si</c><c>   1</c></rc>
    <rc><c>Si</c><c>   1</c></rc>
    <rc><c>Si</c><c>   1</c></rc>
    <rc><c>Si</c><c>   1</c></rc>
    <rc><c>Si</c><c>   1</c></rc>
    <rc><c>Si</c><c>   1</c></rc>
    <rc><c>Si</c><c>   1</c></rc>
    <rc><c>Si</c><c>   1</c></rc>
    <rc><c>Si</c><c>   1</c></rc>
    <rc><c>Si</c><c>   1</c></rc>
    <rc><c>Si</c><c>   1</c></rc>
    <rc><c>Si</c><c>   1</c></rc>
    <rc><c>Si</c><c>   1</c></rc>
    <rc><c>Si</c><c>   1</c></rc>
    <rc><c>Si</c><c>   1</c></rc>
    <rc><c>Si</c><c>   1</c></rc>
    <rc><c>Si</c><c>   1</c></rc>
    <rc><c>Si</c><c>   1</c></rc>
    <rc><c>Si</c><c>   1</c></rc>
    <rc><c>Si</c><c>   1</c></rc>
    <rc><c>Si</c><c>   1</c></rc>
    <rc><c>Si</c><c>   1</c></rc>
    <rc><c>Si</c><c>   1</c></rc>
    <rc><c>Si</c><c>   1</c></rc>
    <rc><c>Si</c><c>   1</c></rc>
    <rc><c>Si</c><c>   1</c></rc>
    <rc><c>Si</c><c>   1</c></rc>
    <rc><c>Si</c><c>   1</c></rc>
    <rc><c>Si</c><c>   1</c></rc>
    <rc><c>Si</c><c>   1</c></rc>
    <rc><c>Si</c><c>   1</c></rc>
    <rc><c>Si</c><c>   1</c></rc>
    <rc><c>Si</c><c>   1</c></rc>
    <rc><c>Si</c><c>   1</c></rc>
    <rc><c>Si</c><c>   1</c></rc>
    <rc><c>Si</c><c>   1</c></rc>
    <rc><c>Si</c><c>   1</c></rc>
    <rc><c>Si</c><c>   1</c></rc>
    <rc><c>Si</c><c>   1</c></rc>
    <rc><c>Si</c><c>   1</c></rc>
    <rc><c>Si</c><c>   1</c></rc>
    <rc><c>Si</c><c>   1</c></rc>
    <rc><c>Si</c><c>   1</c></rc>
    <rc><c>Si</c><c>   1</c></rc>
    <rc><c>Si</c><c>   1</c></rc>
    <rc><c>Si</c><c>   1</c></rc>
   </set>
  </array>
  <array name="atomtypes" >
   <dimension dim="1">type</dimension>
   <field type="int">atomspertype</field>
   <field type="string">element</field>
   <field>mass</field>
   <field>valence</field>
   <field type="string">pseudopotential</field>
   <set>
    <rc><c>  64</c><c>Si</c><c>     28.08500000</c><c>      4.00000000</c><c>  PAW_PBE Si 05Jan2001                  </c></rc>
   </set>
  </array>
 </atominfo>
 <structure name="initialpos" >
  <crystal>
   <varray name="basis" >
    <v>      10.93252578       0.00000000       0.00000000 </v>
    <v>       0.00000000      10.93252578       0.00000000 </v>
    <v>       0.00000000       0.00000000      10.93252578 </v>
   </varray>
   <i name="volume">   1306.65679237 </i>
   <varray name="rec_basis" >
    <v>       0.09147017       0.00000000       0.00000000 </v>
    <v>       0.00000000       0.09147017       0.00000000 </v>
    <v>       0.00000000       0.00000000       0.09147017 </v>
   </varray>
  </crystal>
  <varray name="positions" >
   <v>       0.44024411       0.43750000       0.43750000 </v>
   <v>       0.93750000       0.43750000       0.43750000 </v>
   <v>       0.43750000       0.93750000       0.43750000 </v>
   <v>       0.93750000       0.93750000       0.43750000 </v>
   <v>       0.43750000       0.43750000       0.93750000 </v>
   <v>       0.93750000       0.43750000       0.93750000 </v>
   <v>       0.43750000       0.93750000       0.93750000 </v>
   <v>       0.93750000       0.93750000       0.93750000 </v>
   <v>       0.43750000       0.18750000       0.18750000 </v>
   <v>       0.93750000       0.18750000       0.18750000 </v>
   <v>       0.43750000       0.68750000       0.18750000 </v>
   <v>       0.93750000       0.68750000       0.18750000 </v>
   <v>       0.43750000       0.18750000       0.68750000 </v>
   <v>       0.93750000       0.18750000       0.68750000 </v>
   <v>       0.43750000       0.68750000       0.68750000 </v>
   <v>       0.93750000       0.68750000       0.68750000 </v>
   <v>       0.18750000       0.43750000       0.18750000 </v>
   <v>       0.68750000       0.43750000       0.18750000 </v>
   <v>       0.18750000       0.93750000       0.18750000 </v>
   <v>       0.68750000       0.93750000       0.18750000 </v>
   <v>       0.18750000       0.43750000       0.68750000 </v>
   <v>       0.68750000       0.43750000       0.68750000 </v>
   <v>       0.18750000       0.93750000       0.68750000 </v>
   <v>       0.68750000       0.93750000       0.68750000 </v>
   <v>       0.18750000       0.18750000       0.43750000 </v>
   <v>       0.68750000       0.18750000       0.43750000 </v>
   <v>       0.18750000       0.68750000       0.43750000 </v>
   <v>       0.68750000       0.68750000       0.43750000 </v>
   <v>       0.18750000       0.18750000       0.93750000 </v>
   <v>       0.68750000       0.18750000       0.93750000 </v>
   <v>       0.18750000       0.68750000       0.93750000 </v>
   <v>       0.68750000       0.68750000       0.93750000 </v>
   <v>       0.06250000       0.06250000       0.06250000 </v>
   <v>       0.56250000       0.06250000       0.06250000 </v>
   <v>       0.06524411       0.56250000       0.06250000 </v>
   <v>       0.56250000       0.56250000       0.06250000 </v>
   <v>       0.06250000       0.06250000       0.56250000 </v>
   <v>       0.56250000       0.06250000       0.56250000 </v>
   <v>       0.06250000       0.56250000       0.56250000 </v>
   <v>       0.56250000       0.56250000       0.56250000 </v>
   <v>       0.06250000       0.31250000       0.31250000 </v>
   <v>       0.56250000       0.31250000       0.31250000 </v>
   <v>       0.06250000       0.81250000       0.31250000 </v>
   <v>       0.56250000       0.81250000       0.31250000 </v>
   <v>       0.06250000       0.31250000       0.81250000 </v>
   <v>       0.56250000       0.31250000       0.81250000 </v>
   <v>       0.06250000       0.81250000       0.81250000 </v>
   <v>       0.56250000       0.81250000       0.81250000 </v>
   <v>       0.31250000       0.06250000       0.31250000 </v>
   <v>       0.81250000       0.06250000       0.31250000 </v>
   <v>       0.31250000       0.56250000       0.31250000 </v>
   <v>       0.81250000       0.56250000       0.31250000 </v>
   <v>       0.31250000       0.06250000       0.81250000 </v>
   <v>       0.81250000       0.06250000       0.81250000 </v>
   <v>       0.31250000       0.56250000       0.81250000 </v>
   <v>       0.81250000       0.56250000       0.81250000 </v>
   <v>       0.31250000       0.31250000       0.06250000 </v>
   <v>       0.81250000       0.31250000       0.06250000 </v>
   <v>       0.31250000       0.81250000       0.06250000 </v>
   <v>       0.81250000       0.81250000       0.06250000 </v>
   <v>       0.31250000       0.31250000       0.56250000 </v>
   <v>       0.81250000       0.31250000       0.56250000 </v>
   <v>       0.31250000       0.81250000       0.56250000 </v>
   <v>       0.81250000       0.81250000       0.56250000 </v>
  </varray>
 </structure>
 <calculation>
  <scstep>
   <time name="dav">    4.24    4.25</time>
   <time name="total">    4.42    4.44</time>
   <energy>
    <i name="alphaZ">    105.52440745 </i>
    <i name="ewald">  -7265.47256732 </i>
    <i name="hartreedc">   -361.71108165 </i>
    <i name="XCdc">   -597.75714197 </i>
    <i name="pawpsdc">   5639.92317535 </i>
    <i name="pawaedc">  -4513.95313856 </i>
    <i name="eentropy">     -0.00120778 </i>
    <i name="bandstr">    856.87883431 </i>
    <i name="atom">   6596.14994790 </i>
    <i name="e_fr_energy">    459.58122773 </i>
    <i name="e_wo_entrp">    459.58243552 </i>
    <i name="e_0_energy">    459.58183163 </i>
   </energy>
  </scstep>
  <scstep>
   <time name="dav">    4.87    4.87</time>
   <time name="total">    4.87    4.88</time>
   <energy>
    <i name="e_fr_energy">   -300.08971233 </i>
    <i name="e_wo_entrp">   -300.08971233 </i>
    <i name="e_0_energy">   -300.08971233 </i>
   </energy>
  </scstep>
  <scstep>
   <time name="dav">    4.92    4.92</time>
   <time name="total">    4.92    4.92</time>
   <energy>
    <i name="e_fr_energy">   -351.03338092 </i>
    <i name="e_wo_entrp">   -351.03338092 </i>
    <i name="e_0_energy">   -351.03338092 </i>
   </energy>
  </scstep>
  <scstep>
   <time name="dav">    4.90    4.90</time>
   <time name="total">    4.90    4.90</time>
   <energy>
    <i name="e_fr_energy">   -352.27294841 </i>
    <i name="e_wo_entrp">   -352.27294841 </i>
    <i name="e_0_energy">   -352.27294841 </i>
   </energy>
  </scstep>
  <scstep>
   <time name="dav">    4.86    4.85</time>
   <time name="total">    5.09    5.10</time>
   <energy>
    <i name="e_fr_energy">   -352.31311013 </i>
    <i name="e_wo_entrp">   -352.31311013 </i>
    <i name="e_0_energy">   -352.31311013 </i>
   </energy>
  </scstep>
  <scstep>
   <time name="dav">    4.71    4.72</time>
   <time name="total">    5.12    5.14</time>
   <energy>
    <i name="e_fr_energy">   -348.58471775 </i>
    <i name="e_wo_entrp">   -348.58471775 </i>
    <i name="e_0_energy">   -348.58471775 </i>
   </energy>
  </scstep>
  <scstep>
   <time name="dav">    4.74    4.74</time>
   <time name="total">    5.16    5.16</time>
   <energy>
    <i name="e_fr_energy">   -346.87187517 </i>
    <i name="e_wo_entrp">   -346.87187517 </i>
    <i name="e_0_energy">   -346.87187517 </i>
   </energy>
  </scstep>
  <scstep>
   <time name="dav">    4.72    4.72</time>
   <time name="total">    5.12    5.13</time>
   <energy>
    <i name="e_fr_energy">   -346.89816446 </i>
    <i name="e_wo_entrp">   -346.89816446 </i>
    <i name="e_0_energy">   -346.89816446 </i>
   </energy>
  </scstep>
  <scstep>
   <time name="dav">    4.97    4.98</time>
   <time name="total">    5.38    5.39</time>
   <energy>
    <i name="e_fr_energy">   -346.90489065 </i>
    <i name="e_wo_entrp">   -346.90489065 </i>
    <i name="e_0_energy">   -346.90489065 </i>
   </energy>
  </scstep>
  <scstep>
   <time name="dav">    4.59    4.59</time>
   <time name="total">    4.99    5.00</time>
   <energy>
    <i name="e_fr_energy">   -346.90694157 </i>
    <i name="e_wo_entrp">   -346.90694157 </i>
    <i name="e_0_energy">   -346.90694157 </i>
   </energy>
  </scstep>
  <scstep>
   <time name="dav">    4.85    4.85</time>
   <time name="total">    5.25    5.28</time>
   <energy>
    <i name="e_fr_energy">   -346.90691703 </i>
    <i name="e_wo_entrp">   -346.90691703 </i>
    <i name="e_0_energy">   -346.90691703 </i>
   </energy>
  </scstep>
  <scstep>
   <time name="dav">    4.88    4.88</time>
   <time name="total">    5.29    5.30</time>
   <energy>
    <i name="e_fr_energy">   -346.90693178 </i>
    <i name="e_wo_entrp">   -346.90693178 </i>
    <i name="e_0_energy">   -346.90693178 </i>
   </energy>
  </scstep>
  <scstep>
   <time name="dav">    4.74    4.74</time>
   <time name="total">    5.15    5.16</time>
   <energy>
    <i name="e_fr_energy">   -346.90693231 </i>
    <i name="e_wo_entrp">   -346.90693231 </i>
    <i name="e_0_energy">   -346.90693231 </i>
   </energy>
  </scstep>
  <scstep>
   <time name="dav">    4.89    4.90</time>
   <time name="total">    5.30    5.31</time>
   <energy>
    <i name="e_fr_energy">   -346.90693292 </i>
    <i name="e_wo_entrp">   -346.90693292 </i>
    <i name="e_0_energy">   -346.90693292 </i>
   </energy>
  </scstep>
  <scstep>
   <time name="dav">    3.95    3.95</time>
   <time name="total">    4.36    4.37</time>
   <energy>
    <i name="e_fr_energy">   -346.90693268 </i>
    <i name="e_wo_entrp">   -346.90693268 </i>
    <i name="e_0_energy">   -346.90693268 </i>
   </energy>
  </scstep>
  <scstep>
   <time name="dav">    3.33    3.33</time>
   <time name="total">    3.74    3.78</time>
   <energy>
    <i name="e_fr_energy">   -346.90693275 </i>
    <i name="e_wo_entrp">   -346.90693275 </i>
    <i name="e_0_energy">   -346.90693275 </i>
   </energy>
  </scstep>
  <scstep>
   <time name="dav">    3.25    3.25</time>
   <time name="total">    3.66    3.67</time>
   <energy>
    <i name="e_fr_energy">   -346.90693274 </i>
    <i name="e_wo_entrp">   -346.90693274 </i>
    <i name="e_0_energy">   -346.90693274 </i>
   </energy>
  </scstep>
  <scstep>
   <time name="dav">    3.21    3.22</time>
   <time name="total">    3.63    3.64</time>
   <energy>
    <i name="e_fr_energy">   -346.90693275 </i>
    <i name="e_wo_entrp">   -346.90693275 </i>
    <i name="e_0_energy">   -346.90693275 </i>
   </energy>
  </scstep>
  <scstep>
   <time name="dav">    3.19    3.20</time>
   <time name="total">    3.37    3.39</time>
   <energy>
    <i name="alphaZ">    105.52440745 </i>
    <i name="ewald">  -7265.47256732 </i>
    <i name="hartreedc">   -485.14191916 </i>
    <i name="XCdc">   -577.61229271 </i>
    <i name="pawpsdc">  27883.43325349 </i>
    <i name="pawaedc"> -26764.15118064 </i>
    <i name="eentropy">      0.00000000 </i>
    <i name="bandstr">    160.36341824 </i>
    <i name="atom">   6596.14994790 </i>
    <i name="e_fr_energy">   -346.90693276 </i>
    <i name="e_wo_entrp">   -346.90693276 </i>
    <i name="e_0_energy">   -346.90693276 </i>
   </energy>
  </scstep>
  <structure>
   <crystal>
    <varray name="basis" >
     <v>      10.93252578       0.00000000       0.00000000 </v>
     <v>       0.00000000      10.93252578       0.00000000 </v>
     <v>       0.00000000       0.00000000      10.93252578 </v>
    </varray>
    <i name="volume">   1306.65679237 </i>
    <varray name="rec_basis" >
     <v>       0.09147017       0.00000000       0.00000000 </v>
     <v>       0.00000000       0.09147017       0.00000000 </v>
     <v>       0.00000000       0.00000000       0.09147017 </v>
    </varray>
   </crystal>
   <varray name="positions" >
    <v>       0.44024411       0.43750000       0.43750000 </v>
    <v>       0.93750000       0.43750000       0.43750000 </v>
    <v>       0.43750000       0.93750000       0.43750000 </v>
    <v>       0.93750000       0.93750000       0.43750000 </v>
    <v>       0.43750000       0.43750000       0.93750000 </v>
    <v>       0.93750000       0.43750000       0.93750000 </v>
    <v>       0.43750000       0.93750000       0.93750000 </v>
    <v>       0.93750000       0.93750000       0.93750000 </v>
    <v>       0.43750000       0.18750000       0.18750000 </v>
    <v>       0.93750000       0.18750000       0.18750000 </v>
    <v>       0.43750000       0.68750000       0.18750000 </v>
    <v>       0.93750000       0.68750000       0.18750000 </v>
    <v>       0.43750000       0.18750000       0.68750000 </v>
    <v>       0.93750000       0.18750000       0.68750000 </v>
    <v>       0.43750000       0.68750000       0.68750000 </v>
    <v>       0.93750000       0.68750000       0.68750000 </v>
    <v>       0.18750000       0.43750000       0.18750000 </v>
    <v>       0.68750000       0.43750000       0.18750000 </v>
    <v>       0.18750000       0.93750000       0.18750000 </v>
    <v>       0.68750000       0.93750000       0.18750000 </v>
    <v>       0.18750000       0.43750000       0.68750000 </v>
    <v>       0.68750000       0.43750000       0.68750000 </v>
    <v>       0.18750000       0.93750000       0.68750000 </v>
    <v>       0.68750000       0.93750000       0.68750000 </v>
    <v>       0.18750000       0.18750000       0.43750000 </v>
    <v>       0.68750000       0.18750000       0.43750000 </v>
    <v>       0.18750000       0.68750000       0.43750000 </v>
    <v>       0.68750000       0.68750000       0.43750000 </v>
    <v>       0.18750000       0.18750000       0.93750000 </v>
    <v>       0.68750000       0.18750000       0.93750000 </v>
    <v>       0.18750000       0.68750000       0.93750000 </v>
    <v>       0.68750000       0.68750000       0.93750000 </v>
    <v>       0.06250000       0.06250000       0.06250000 </v>
    <v>       0.56250000       0.06250000       0.06250000 </v>
    <v>       0.06524411       0.56250000       0.06250000 </v>
    <v>       0.56250000       0.56250000       0.06250000 </v>
    <v>       0.06250000       0.06250000       0.56250000 </v>
    <v>       0.56250000       0.06250000       0.56250000 </v>
    <v>       0.06250000       0.56250000       0.56250000 </v>
    <v>       0.56250000       0.56250000       0.56250000 </v>
    <v>       0.06250000       0.31250000       0.31250000 </v>
    <v>       0.56250000       0.31250000       0.31250000 </v>
    <v>       0.06250000       0.81250000       0.31250000 </v>
    <v>       0.56250000       0.81250000       0.31250000 </v>
    <v>       0.06250000       0.31250000       0.81250000 </v>
    <v>       0.56250000       0.31250000       0.81250000 </v>
    <v>       0.06250000       0.81250000       0.81250000 </v>
    <v>       0.56250000       0.81250000       0.81250000 </v>
    <v>       0.31250000       0.06250000       0.31250000 </v>
    <v>       0.81250000       0.06250000       0.31250000 </v>
    <v>       0.31250000       0.56250000       0.31250000 </v>
    <v>       0.81250000       0.56250000       0.31250000 </v>
    <v>       0.31250000       0.06250000       0.81250000 </v>
    <v>       0.81250000       0.06250000       0.81250000 </v>
    <v>       0.31250000       0.56250000       0.81250000 </v>
    <v>       0.81250000       0.56250000       0.81250000 </v>
    <v>       0.31250000       0.31250000       0.06250000 </v>
    <v>       0.81250000       0.31250000       0.06250000 </v>
    <v>       0.31250000       0.81250000       0.06250000 </v>
    <v>       0.81250000       0.81250000       0.06250000 </v>
    <v>       0.31250000       0.31250000       0.56250000 </v>
    <v>       0.81250000       0.31250000       0.56250000 </v>
    <v>       0.31250000       0.81250000       0.56250000 </v>
    <v>       0.81250000       0.81250000       0.56250000 </v>
   </varray>
  </structure>
  <varray name="forces" >
   <v>      -0.38651736       0.00070972       0.00060362 </v>
   <v>      -0.00088329       0.00124678       0.00088978 </v>
   <v>       0.00078386       0.00074515       0.00074556 </v>
   <v>       0.00596399       0.00067706       0.00067449 </v>
   <v>       0.00104067       0.00090356       0.00090424 </v>
   <v>       0.09289672       0.06095297       0.06095997 </v>
   <v>      -0.01088712       0.00063998       0.00071273 </v>
   <v>      -0.00085448       0.00088915       0.00124726 </v>
   <v>      -0.01222062       0.00212982       0.00205603 </v>
   <v>      -0.00145693      -0.00066197      -0.00101960 </v>
   <v>      -0.01305543       0.00175639      -0.00356817 </v>
   <v>       0.09306346      -0.06072769      -0.06120027 </v>
   <v>      -0.01330686      -0.00341070       0.00191808 </v>
   <v>       0.00613362      -0.00090812      -0.00044477 </v>
   <v>      -0.01221883      -0.00348049      -0.00340999 </v>
   <v>      -0.00145860      -0.00147226      -0.00111572 </v>
   <v>       0.10141370      -0.06881745       0.07166834 </v>
   <v>       0.00552460      -0.00367941      -0.00477942 </v>
   <v>      -0.00045809      -0.00115524      -0.00065013 </v>
   <v>       0.00163921      -0.00083179       0.00249908 </v>
   <v>       0.00416975       0.00145713      -0.00463953 </v>
   <v>       0.00642023       0.00211436       0.00629238 </v>
   <v>       0.00723110      -0.00045469       0.00254851 </v>
   <v>       0.00048624      -0.00052505      -0.00109164 </v>
   <v>       0.01185870       0.00624405      -0.00335115 </v>
   <v>       0.00526350      -0.00493301      -0.00352918 </v>
   <v>       0.00417287      -0.00434423       0.00175451 </v>
   <v>       0.00642053       0.00634557       0.00216528 </v>
   <v>      -0.00045713      -0.00093624      -0.00143950 </v>
   <v>       0.00163885       0.00244809      -0.00088514 </v>
   <v>       0.09682652       0.06797610      -0.06588611 </v>
   <v>       0.00074530      -0.00093628      -0.00068098 </v>
   <v>       0.00078079       0.00075551       0.00075499 </v>
   <v>       0.00603261       0.00068453       0.00068644 </v>
   <v>      -0.38647293       0.00065037       0.00064178 </v>
   <v>      -0.00092592       0.00121114       0.00092411 </v>
   <v>      -0.01093418       0.00059997       0.00064803 </v>
   <v>      -0.00089994       0.00092482       0.00121089 </v>
   <v>       0.00104131       0.00091019       0.00090956 </v>
   <v>       0.09562671       0.06611512       0.06610804 </v>
   <v>      -0.01315438       0.00186718      -0.00368316 </v>
   <v>       0.09578771      -0.06588265      -0.06632908 </v>
   <v>      -0.01215701       0.00206815       0.00202022 </v>
   <v>      -0.00147749      -0.00069210      -0.00097838 </v>
   <v>      -0.01215859      -0.00331740      -0.00326668 </v>
   <v>      -0.00147560      -0.00144561      -0.00115835 </v>
   <v>      -0.01342100      -0.00352697       0.00201838 </v>
   <v>       0.00618888      -0.00091321      -0.00045670 </v>
   <v>      -0.00041182      -0.00111863      -0.00060045 </v>
   <v>       0.00167932      -0.00086792       0.00257066 </v>
   <v>       0.09890929      -0.06369313       0.06664854 </v>
   <v>       0.00537233      -0.00357523      -0.00465691 </v>
   <v>       0.00715627      -0.00044679       0.00252188 </v>
   <v>       0.00048174      -0.00051566      -0.00111662 </v>
   <v>       0.00437217       0.00152580      -0.00479689 </v>
   <v>       0.00630999       0.00196565       0.00619881 </v>
   <v>       0.00436870      -0.00444810       0.00187247 </v>
   <v>       0.00631025       0.00626564       0.00203561 </v>
   <v>       0.01194051       0.00636796      -0.00345129 </v>
   <v>       0.00511566      -0.00481674      -0.00341280 </v>
   <v>       0.09408922       0.06280291      -0.06072470 </v>
   <v>       0.00074011      -0.00095843      -0.00067308 </v>
   <v>      -0.00041280      -0.00095833      -0.00147815 </v>
   <v>       0.00167943       0.00250070      -0.00093570 </v>
  </varray>
  <varray name="stress" >
   <v>      -0.01770193       0.00011900      -0.00019388 </v>
   <v>       0.00011899       0.02097754       0.00013314 </v>
   <v>      -0.00019394       0.00013316       0.02065832 </v>
  </varray>
  <energy>
   <i name="e_fr_energy">   -346.90693276 </i>
   <i name="e_wo_entrp">   -346.90693276 </i>
   <i name="e_0_energy">      0.00000000 </i>
  </energy>
  <time name="totalsc">   99.73   99.98</time>
  <eigenvalues>
   <array>
    <dimension dim="1">band</dimension>
    <dimension dim="2">kpoint</dimension>
    <dimension dim="3">spin</dimension>
    <field>eigene</field>
    <field>occ</field>
    <set>
     <set comment="spin 1">
      <set comment="kpoint 1">
       <r>   -5.9932    1.0000 </r>
       <r>   -5.4682    1.0000 </r>
       <r>   -5.4648    1.0000 </r>
       <r>   -5.4613    1.0000 </r>
       <r>   -4.9689    1.0000 </r>
       <r>   -4.9656    1.0000 </r>
       <r>   -4.9621    1.0000 </r>
       <r>   -4.5324    1.0000 </r>
       <r>   -4.4358    1.0000 </r>
       <r>   -4.4324    1.0000 </r>
       <r>   -4.4290    1.0000 </r>
       <r>   -4.0236    1.0000 </r>
       <r>   -4.0187    1.0000 </r>
       <r>   -4.0169    1.0000 </r>
       <r>   -4.0160    1.0000 </r>
       <r>   -4.0142    1.0000 </r>
       <r>   -4.0095    1.0000 </r>
       <r>   -3.8265    1.0000 </r>
       <r>   -3.8244    1.0000 </r>
       <r>   -3.8220    1.0000 </r>
       <r>   -3.3321    1.0000 </r>
       <r>   -3.3283    1.0000 </r>
       <r>   -3.3246    1.0000 </r>
       <r>   -2.9639    1.0000 </r>
       <r>   -2.9591    1.0000 </r>
       <r>   -2.9545    1.0000 </r>
       <r>   -2.7979    1.0000 </r>
       <r>   -2.7929    1.0000 </r>
       <r>   -2.7910    1.0000 </r>
       <r>   -2.7908    1.0000 </r>
       <r>   -2.7888    1.0000 </r>
       <r>   -2.7836    1.0000 </r>
       <r>   -1.2577    1.0000 </r>
       <r>   -1.2516    1.0000 </r>
       <r>   -1.2490    1.0000 </r>
       <r>   -1.2484    1.0000 </r>
       <r>   -1.2461    1.0000 </r>
       <r>   -1.2402    1.0000 </r>
       <r>   -1.1567    1.0000 </r>
       <r>   -1.1511    1.0000 </r>
       <r>   -1.1456    1.0000 </r>
       <r>   -1.0353    1.0000 </r>
       <r>   -1.0328    1.0000 </r>
       <r>   -1.0299    1.0000 </r>
       <r>   -0.9538    1.0000 </r>
       <r>   -0.9468    1.0000 </r>
       <r>   -0.9395    1.0000 </r>
       <r>   -0.2446    1.0000 </r>
       <r>   -0.1688    1.0000 </r>
       <r>   -0.1645    1.0000 </r>
       <r>   -0.1608    1.0000 </r>
       <r>   -0.1596    1.0000 </r>
       <r>   -0.1554    1.0000 </r>
       <r>   -0.1516    1.0000 </r>
       <r>    0.7075    1.0000 </r>
       <r>    0.7143    1.0000 </r>
       <r>    0.7210    1.0000 </r>
       <r>    1.0451    1.0000 </r>
       <r>    1.0472    1.0000 </r>
       <r>    1.0491    1.0000 </r>
       <r>    1.6527    1.0000 </r>
       <r>    1.6551    1.0000 </r>
       <r>    1.6562    1.0000 </r>
       <r>    1.6578    1.0000 </r>
       <r>    1.6589    1.0000 </r>
       <r>    1.6611    1.0000 </r>
       <r>    1.7137    1.0000 </r>
       <r>    1.7159    1.0000 </r>
       <r>    1.7182    1.0000 </r>
       <r>    2.2652    1.0000 </r>
       <r>    2.2678    1.0000 </r>
       <r>    2.2701    1.0000 </r>
       <r>    2.3654    1.0000 </r>
       <r>    2.3671    1.0000 </r>
       <r>    2.3703    1.0000 </r>
       <r>    2.3717    1.0000 </r>
       <r>    2.3749    1.0000 </r>
       <r>    2.3761    1.0000 </r>
       <r>    2.4218    1.0000 </r>
       <r>    2.4249    1.0000 </r>
       <r>    2.4281    1.0000 </r>
       <r>    2.7293    1.0000 </r>
       <r>    2.7321    1.0000 </r>
       <r>    2.7344    1.0000 </r>
       <r>    2.7355    1.0000 </r>
       <r>    2.7378    1.0000 </r>
       <r>    2.7405    1.0000 </r>
       <r>    2.9987    1.0000 </r>
       <r>    2.9993    1.0000 </r>
       <r>    2.9995    1.0000 </r>
       <r>    3.0119    1.0000 </r>
       <r>    3.0136    1.0000 </r>
       <r>    3.0152    1.0000 </r>
       <r>    3.3577    1.0000 </r>
       <r>    3.3617    1.0000 </r>
       <r>    3.3658    1.0000 </r>
       <r>    3.3819    1.0000 </r>
       <r>    3.3842    1.0000 </r>
       <r>    3.3876    1.0000 </r>
       <r>    3.4638    1.0000 </r>
       <r>    3.4665    1.0000 </r>
       <r>    3.4695    1.0000 </r>
       <r>    3.7350    1.0000 </r>
       <r>    3.7385    1.0000 </r>
       <r>    3.7409    1.0000 </r>
       <r>    3.7416    1.0000 </r>
       <r>    3.7437    1.0000 </r>
       <r>    3.7477    1.0000 </r>
       <r>    3.7775    1.0000 </r>
       <r>    3.7806    1.0000 </r>
       <r>    3.7841    1.0000 </r>
       <r>    4.0407    1.0000 </r>
       <r>    4.0976    1.0000 </r>
       <r>    4.0979    1.0000 </r>
       <r>    4.0982    1.0000 </r>
       <r>    4.3380    1.0000 </r>
       <r>    4.3410    1.0000 </r>
       <r>    4.3442    1.0000 </r>
       <r>    4.3999    1.0000 </r>
       <r>    4.4056    1.0000 </r>
       <r>    4.4122    1.0000 </r>
       <r>    4.5628    1.0000 </r>
       <r>    4.5629    1.0000 </r>
       <r>    4.8660    1.0000 </r>
       <r>    4.8700    1.0000 </r>
       <r>    4.8742    1.0000 </r>
       <r>    5.3497    1.0000 </r>
       <r>    5.3498    1.0000 </r>
       <r>    6.5629    0.0000 </r>
       <r>    6.5634    0.0000 </r>
       <r>    6.5638    0.0000 </r>
       <r>    6.9991    0.0000 </r>
       <r>    7.0045    0.0000 </r>
       <r>    7.0097    0.0000 </r>
       <r>    7.2337    0.0000 </r>
       <r>    7.4865    0.0000 </r>
       <r>    7.4908    0.0000 </r>
       <r>    7.4949    0.0000 </r>
       <r>    7.6164    0.0000 </r>
       <r>    7.6197    0.0000 </r>
       <r>    7.6225    0.0000 </r>
       <r>    7.7761    0.0000 </r>
       <r>    7.7802    0.0000 </r>
       <r>    7.7830    0.0000 </r>
       <r>    7.8011    0.0000 </r>
       <r>    7.8011    0.0000 </r>
       <r>    7.8019    0.0000 </r>
       <r>    8.0239    0.0000 </r>
       <r>    8.0256    0.0000 </r>
       <r>    8.0305    0.0000 </r>
       <r>    8.0307    0.0000 </r>
       <r>    8.0352    0.0000 </r>
       <r>    8.0371    0.0000 </r>
       <r>    8.0816    0.0000 </r>
       <r>    8.2920    0.0000 </r>
       <r>    8.2950    0.0000 </r>
       <r>    8.2979    0.0000 </r>
       <r>    8.4941    0.0000 </r>
       <r>    8.4987    0.0000 </r>
       <r>    8.5015    0.0000 </r>
       <r>    8.5075    0.0000 </r>
       <r>    8.5091    0.0000 </r>
       <r>    8.5205    0.0000 </r>
       <r>    8.5439    0.0000 </r>
      </set>
      <set comment="kpoint 2">
       <r>   -5.9932    1.0000 </r>
       <r>   -5.4682    1.0000 </r>
       <r>   -5.4648    1.0000 </r>
       <r>   -5.4613    1.0000 </r>
       <r>   -4.9690    1.0000 </r>
       <r>   -4.9655    1.0000 </r>
       <r>   -4.9621    1.0000 </r>
       <r>   -4.5322    1.0000 </r>
       <r>   -4.4359    1.0000 </r>
       <r>   -4.4325    1.0000 </r>
       <r>   -4.4291    1.0000 </r>
       <r>   -4.0246    1.0000 </r>
       <r>   -4.0195    1.0000 </r>
       <r>   -4.0172    1.0000 </r>
       <r>   -4.0156    1.0000 </r>
       <r>   -4.0133    1.0000 </r>
       <r>   -4.0086    1.0000 </r>
       <r>   -3.8244    1.0000 </r>
       <r>   -3.8244    1.0000 </r>
       <r>   -3.8240    1.0000 </r>
       <r>   -3.3321    1.0000 </r>
       <r>   -3.3284    1.0000 </r>
       <r>   -3.3246    1.0000 </r>
       <r>   -2.9596    1.0000 </r>
       <r>   -2.9591    1.0000 </r>
       <r>   -2.9590    1.0000 </r>
       <r>   -2.7985    1.0000 </r>
       <r>   -2.7936    1.0000 </r>
       <r>   -2.7920    1.0000 </r>
       <r>   -2.7898    1.0000 </r>
       <r>   -2.7881    1.0000 </r>
       <r>   -2.7829    1.0000 </r>
       <r>   -1.2569    1.0000 </r>
       <r>   -1.2522    1.0000 </r>
       <r>   -1.2506    1.0000 </r>
       <r>   -1.2470    1.0000 </r>
       <r>   -1.2455    1.0000 </r>
       <r>   -1.2413    1.0000 </r>
       <r>   -1.1512    1.0000 </r>
       <r>   -1.1512    1.0000 </r>
       <r>   -1.1505    1.0000 </r>
       <r>   -1.0329    1.0000 </r>
       <r>   -1.0328    1.0000 </r>
       <r>   -1.0324    1.0000 </r>
       <r>   -0.9538    1.0000 </r>
       <r>   -0.9468    1.0000 </r>
       <r>   -0.9395    1.0000 </r>
       <r>   -0.2445    1.0000 </r>
       <r>   -0.1664    1.0000 </r>
       <r>   -0.1644    1.0000 </r>
       <r>   -0.1625    1.0000 </r>
       <r>   -0.1577    1.0000 </r>
       <r>   -0.1558    1.0000 </r>
       <r>   -0.1539    1.0000 </r>
       <r>    0.7075    1.0000 </r>
       <r>    0.7143    1.0000 </r>
       <r>    0.7210    1.0000 </r>
       <r>    1.0451    1.0000 </r>
       <r>    1.0471    1.0000 </r>
       <r>    1.0491    1.0000 </r>
       <r>    1.6531    1.0000 </r>
       <r>    1.6548    1.0000 </r>
       <r>    1.6565    1.0000 </r>
       <r>    1.6576    1.0000 </r>
       <r>    1.6589    1.0000 </r>
       <r>    1.6606    1.0000 </r>
       <r>    1.7139    1.0000 </r>
       <r>    1.7162    1.0000 </r>
       <r>    1.7184    1.0000 </r>
       <r>    2.2662    1.0000 </r>
       <r>    2.2678    1.0000 </r>
       <r>    2.2692    1.0000 </r>
       <r>    2.3668    1.0000 </r>
       <r>    2.3673    1.0000 </r>
       <r>    2.3701    1.0000 </r>
       <r>    2.3717    1.0000 </r>
       <r>    2.3738    1.0000 </r>
       <r>    2.3745    1.0000 </r>
       <r>    2.4222    1.0000 </r>
       <r>    2.4251    1.0000 </r>
       <r>    2.4285    1.0000 </r>
       <r>    2.7292    1.0000 </r>
       <r>    2.7323    1.0000 </r>
       <r>    2.7348    1.0000 </r>
       <r>    2.7350    1.0000 </r>
       <r>    2.7376    1.0000 </r>
       <r>    2.7406    1.0000 </r>
       <r>    2.9974    1.0000 </r>
       <r>    2.9992    1.0000 </r>
       <r>    3.0009    1.0000 </r>
       <r>    3.0118    1.0000 </r>
       <r>    3.0139    1.0000 </r>
       <r>    3.0152    1.0000 </r>
       <r>    3.3577    1.0000 </r>
       <r>    3.3619    1.0000 </r>
       <r>    3.3659    1.0000 </r>
       <r>    3.3826    1.0000 </r>
       <r>    3.3842    1.0000 </r>
       <r>    3.3867    1.0000 </r>
       <r>    3.4638    1.0000 </r>
       <r>    3.4665    1.0000 </r>
       <r>    3.4694    1.0000 </r>
       <r>    3.7354    1.0000 </r>
       <r>    3.7385    1.0000 </r>
       <r>    3.7406    1.0000 </r>
       <r>    3.7420    1.0000 </r>
       <r>    3.7433    1.0000 </r>
       <r>    3.7474    1.0000 </r>
       <r>    3.7777    1.0000 </r>
       <r>    3.7806    1.0000 </r>
       <r>    3.7843    1.0000 </r>
       <r>    4.0407    1.0000 </r>
       <r>    4.0951    1.0000 </r>
       <r>    4.0982    1.0000 </r>
       <r>    4.1005    1.0000 </r>
       <r>    4.3379    1.0000 </r>
       <r>    4.3409    1.0000 </r>
       <r>    4.3440    1.0000 </r>
       <r>    4.3999    1.0000 </r>
       <r>    4.4056    1.0000 </r>
       <r>    4.4122    1.0000 </r>
       <r>    4.5630    1.0000 </r>
       <r>    4.5630    1.0000 </r>
       <r>    4.8661    1.0000 </r>
       <r>    4.8700    1.0000 </r>
       <r>    4.8742    1.0000 </r>
       <r>    5.3496    1.0000 </r>
       <r>    5.3498    1.0000 </r>
       <r>    6.5628    0.0000 </r>
       <r>    6.5635    0.0000 </r>
       <r>    6.5639    0.0000 </r>
       <r>    6.9991    0.0000 </r>
       <r>    7.0045    0.0000 </r>
       <r>    7.0097    0.0000 </r>
       <r>    7.2337    0.0000 </r>
       <r>    7.4864    0.0000 </r>
       <r>    7.4908    0.0000 </r>
       <r>    7.4949    0.0000 </r>
       <r>    7.6194    0.0000 </r>
       <r>    7.6195    0.0000 </r>
       <r>    7.6197    0.0000 </r>
       <r>    7.7761    0.0000 </r>
       <r>    7.7800    0.0000 </r>
       <r>    7.7832    0.0000 </r>
       <r>    7.7985    0.0000 </r>
       <r>    7.8012    0.0000 </r>
       <r>    7.8039    0.0000 </r>
       <r>    8.0244    0.0000 </r>
       <r>    8.0266    0.0000 </r>
       <r>    8.0293    0.0000 </r>
       <r>    8.0320    0.0000 </r>
       <r>    8.0345    0.0000 </r>
       <r>    8.0366    0.0000 </r>
       <r>    8.0814    0.0000 </r>
       <r>    8.2920    0.0000 </r>
       <r>    8.2950    0.0000 </r>
       <r>    8.2979    0.0000 </r>
       <r>    8.4951    0.0000 </r>
       <r>    8.4979    0.0000 </r>
       <r>    8.5009    0.0000 </r>
       <r>    8.5057    0.0000 </r>
       <r>    8.5079    0.0000 </r>
       <r>    8.5228    0.0000 </r>
       <r>    8.5404    0.0000 </r>
      </set>
      <set comment="kpoint 3">
       <r>   -5.9932    1.0000 </r>
       <r>   -5.4687    1.0000 </r>
       <r>   -5.4647    1.0000 </r>
       <r>   -5.4609    1.0000 </r>
       <r>   -4.9694    1.0000 </r>
       <r>   -4.9654    1.0000 </r>
       <r>   -4.9617    1.0000 </r>
       <r>   -4.5324    1.0000 </r>
       <r>   -4.4365    1.0000 </r>
       <r>   -4.4324    1.0000 </r>
       <r>   -4.4283    1.0000 </r>
       <r>   -4.0257    1.0000 </r>
       <r>   -4.0191    1.0000 </r>
       <r>   -4.0170    1.0000 </r>
       <r>   -4.0157    1.0000 </r>
       <r>   -4.0138    1.0000 </r>
       <r>   -4.0074    1.0000 </r>
       <r>   -3.8293    1.0000 </r>
       <r>   -3.8244    1.0000 </r>
       <r>   -3.8194    1.0000 </r>
       <r>   -3.3332    1.0000 </r>
       <r>   -3.3283    1.0000 </r>
       <r>   -3.3236    1.0000 </r>
       <r>   -2.9640    1.0000 </r>
       <r>   -2.9591    1.0000 </r>
       <r>   -2.9544    1.0000 </r>
       <r>   -2.7996    1.0000 </r>
       <r>   -2.7932    1.0000 </r>
       <r>   -2.7917    1.0000 </r>
       <r>   -2.7901    1.0000 </r>
       <r>   -2.7884    1.0000 </r>
       <r>   -2.7821    1.0000 </r>
       <r>   -1.2562    1.0000 </r>
       <r>   -1.2509    1.0000 </r>
       <r>   -1.2491    1.0000 </r>
       <r>   -1.2483    1.0000 </r>
       <r>   -1.2474    1.0000 </r>
       <r>   -1.2418    1.0000 </r>
       <r>   -1.1553    1.0000 </r>
       <r>   -1.1509    1.0000 </r>
       <r>   -1.1465    1.0000 </r>
       <r>   -1.0361    1.0000 </r>
       <r>   -1.0327    1.0000 </r>
       <r>   -1.0293    1.0000 </r>
       <r>   -0.9515    1.0000 </r>
       <r>   -0.9468    1.0000 </r>
       <r>   -0.9418    1.0000 </r>
       <r>   -0.2446    1.0000 </r>
       <r>   -0.1672    1.0000 </r>
       <r>   -0.1622    1.0000 </r>
       <r>   -0.1612    1.0000 </r>
       <r>   -0.1590    1.0000 </r>
       <r>   -0.1580    1.0000 </r>
       <r>   -0.1530    1.0000 </r>
       <r>    0.7092    1.0000 </r>
       <r>    0.7143    1.0000 </r>
       <r>    0.7192    1.0000 </r>
       <r>    1.0449    1.0000 </r>
       <r>    1.0470    1.0000 </r>
       <r>    1.0493    1.0000 </r>
       <r>    1.6532    1.0000 </r>
       <r>    1.6542    1.0000 </r>
       <r>    1.6567    1.0000 </r>
       <r>    1.6574    1.0000 </r>
       <r>    1.6599    1.0000 </r>
       <r>    1.6604    1.0000 </r>
       <r>    1.7144    1.0000 </r>
       <r>    1.7160    1.0000 </r>
       <r>    1.7179    1.0000 </r>
       <r>    2.2655    1.0000 </r>
       <r>    2.2678    1.0000 </r>
       <r>    2.2699    1.0000 </r>
       <r>    2.3647    1.0000 </r>
       <r>    2.3671    1.0000 </r>
       <r>    2.3694    1.0000 </r>
       <r>    2.3725    1.0000 </r>
       <r>    2.3747    1.0000 </r>
       <r>    2.3767    1.0000 </r>
       <r>    2.4224    1.0000 </r>
       <r>    2.4247    1.0000 </r>
       <r>    2.4276    1.0000 </r>
       <r>    2.7306    1.0000 </r>
       <r>    2.7320    1.0000 </r>
       <r>    2.7336    1.0000 </r>
       <r>    2.7363    1.0000 </r>
       <r>    2.7381    1.0000 </r>
       <r>    2.7391    1.0000 </r>
       <r>    2.9973    1.0000 </r>
       <r>    2.9992    1.0000 </r>
       <r>    3.0010    1.0000 </r>
       <r>    3.0115    1.0000 </r>
       <r>    3.0138    1.0000 </r>
       <r>    3.0155    1.0000 </r>
       <r>    3.3582    1.0000 </r>
       <r>    3.3620    1.0000 </r>
       <r>    3.3648    1.0000 </r>
       <r>    3.3799    1.0000 </r>
       <r>    3.3846    1.0000 </r>
       <r>    3.3894    1.0000 </r>
       <r>    3.4643    1.0000 </r>
       <r>    3.4666    1.0000 </r>
       <r>    3.4689    1.0000 </r>
       <r>    3.7329    1.0000 </r>
       <r>    3.7382    1.0000 </r>
       <r>    3.7412    1.0000 </r>
       <r>    3.7414    1.0000 </r>
       <r>    3.7444    1.0000 </r>
       <r>    3.7491    1.0000 </r>
       <r>    3.7782    1.0000 </r>
       <r>    3.7808    1.0000 </r>
       <r>    3.7835    1.0000 </r>
       <r>    4.0405    1.0000 </r>
       <r>    4.0956    1.0000 </r>
       <r>    4.0979    1.0000 </r>
       <r>    4.1004    1.0000 </r>
       <r>    4.3385    1.0000 </r>
       <r>    4.3410    1.0000 </r>
       <r>    4.3436    1.0000 </r>
       <r>    4.4014    1.0000 </r>
       <r>    4.4057    1.0000 </r>
       <r>    4.4106    1.0000 </r>
       <r>    4.5629    1.0000 </r>
       <r>    4.5630    1.0000 </r>
       <r>    4.8669    1.0000 </r>
       <r>    4.8700    1.0000 </r>
       <r>    4.8733    1.0000 </r>
       <r>    5.3496    1.0000 </r>
       <r>    5.3498    1.0000 </r>
       <r>    6.5596    0.0000 </r>
       <r>    6.5634    0.0000 </r>
       <r>    6.5671    0.0000 </r>
       <r>    7.0008    0.0000 </r>
       <r>    7.0045    0.0000 </r>
       <r>    7.0080    0.0000 </r>
       <r>    7.2337    0.0000 </r>
       <r>    7.4877    0.0000 </r>
       <r>    7.4908    0.0000 </r>
       <r>    7.4936    0.0000 </r>
       <r>    7.6151    0.0000 </r>
       <r>    7.6196    0.0000 </r>
       <r>    7.6240    0.0000 </r>
       <r>    7.7762    0.0000 </r>
       <r>    7.7799    0.0000 </r>
       <r>    7.7830    0.0000 </r>
       <r>    7.7981    0.0000 </r>
       <r>    7.8012    0.0000 </r>
       <r>    7.8045    0.0000 </r>
       <r>    8.0242    0.0000 </r>
       <r>    8.0264    0.0000 </r>
       <r>    8.0304    0.0000 </r>
       <r>    8.0309    0.0000 </r>
       <r>    8.0345    0.0000 </r>
       <r>    8.0366    0.0000 </r>
       <r>    8.0815    0.0000 </r>
       <r>    8.2929    0.0000 </r>
       <r>    8.2951    0.0000 </r>
       <r>    8.2969    0.0000 </r>
       <r>    8.4948    0.0000 </r>
       <r>    8.4982    0.0000 </r>
       <r>    8.5019    0.0000 </r>
       <r>    8.5037    0.0000 </r>
       <r>    8.5066    0.0000 </r>
       <r>    8.5200    0.0000 </r>
       <r>    8.5405    0.0000 </r>
      </set>
      <set comment="kpoint 4">
       <r>   -5.9932    1.0000 </r>
       <r>   -5.4673    1.0000 </r>
       <r>   -5.4648    1.0000 </r>
       <r>   -5.4623    1.0000 </r>
       <r>   -4.9678    1.0000 </r>
       <r>   -4.9655    1.0000 </r>
       <r>   -4.9632    1.0000 </r>
       <r>   -4.5323    1.0000 </r>
       <r>   -4.4347    1.0000 </r>
       <r>   -4.4325    1.0000 </r>
       <r>   -4.4302    1.0000 </r>
       <r>   -4.0246    1.0000 </r>
       <r>   -4.0187    1.0000 </r>
       <r>   -4.0180    1.0000 </r>
       <r>   -4.0148    1.0000 </r>
       <r>   -4.0141    1.0000 </r>
       <r>   -4.0084    1.0000 </r>
       <r>   -3.8293    1.0000 </r>
       <r>   -3.8244    1.0000 </r>
       <r>   -3.8193    1.0000 </r>
       <r>   -3.3305    1.0000 </r>
       <r>   -3.3285    1.0000 </r>
       <r>   -3.3262    1.0000 </r>
       <r>   -2.9640    1.0000 </r>
       <r>   -2.9590    1.0000 </r>
       <r>   -2.9544    1.0000 </r>
       <r>   -2.7982    1.0000 </r>
       <r>   -2.7938    1.0000 </r>
       <r>   -2.7927    1.0000 </r>
       <r>   -2.7889    1.0000 </r>
       <r>   -2.7880    1.0000 </r>
       <r>   -2.7834    1.0000 </r>
       <r>   -1.2557    1.0000 </r>
       <r>   -1.2522    1.0000 </r>
       <r>   -1.2508    1.0000 </r>
       <r>   -1.2468    1.0000 </r>
       <r>   -1.2455    1.0000 </r>
       <r>   -1.2423    1.0000 </r>
       <r>   -1.1553    1.0000 </r>
       <r>   -1.1510    1.0000 </r>
       <r>   -1.1466    1.0000 </r>
       <r>   -1.0361    1.0000 </r>
       <r>   -1.0329    1.0000 </r>
       <r>   -1.0293    1.0000 </r>
       <r>   -0.9537    1.0000 </r>
       <r>   -0.9468    1.0000 </r>
       <r>   -0.9395    1.0000 </r>
       <r>   -0.2446    1.0000 </r>
       <r>   -0.1666    1.0000 </r>
       <r>   -0.1651    1.0000 </r>
       <r>   -0.1619    1.0000 </r>
       <r>   -0.1584    1.0000 </r>
       <r>   -0.1551    1.0000 </r>
       <r>   -0.1536    1.0000 </r>
       <r>    0.7093    1.0000 </r>
       <r>    0.7144    1.0000 </r>
       <r>    0.7192    1.0000 </r>
       <r>    1.0456    1.0000 </r>
       <r>    1.0471    1.0000 </r>
       <r>    1.0485    1.0000 </r>
       <r>    1.6531    1.0000 </r>
       <r>    1.6542    1.0000 </r>
       <r>    1.6557    1.0000 </r>
       <r>    1.6584    1.0000 </r>
       <r>    1.6597    1.0000 </r>
       <r>    1.6608    1.0000 </r>
       <r>    1.7135    1.0000 </r>
       <r>    1.7159    1.0000 </r>
       <r>    1.7188    1.0000 </r>
       <r>    2.2655    1.0000 </r>
       <r>    2.2677    1.0000 </r>
       <r>    2.2700    1.0000 </r>
       <r>    2.3649    1.0000 </r>
       <r>    2.3666    1.0000 </r>
       <r>    2.3706    1.0000 </r>
       <r>    2.3714    1.0000 </r>
       <r>    2.3751    1.0000 </r>
       <r>    2.3767    1.0000 </r>
       <r>    2.4222    1.0000 </r>
       <r>    2.4247    1.0000 </r>
       <r>    2.4277    1.0000 </r>
       <r>    2.7306    1.0000 </r>
       <r>    2.7323    1.0000 </r>
       <r>    2.7344    1.0000 </r>
       <r>    2.7356    1.0000 </r>
       <r>    2.7378    1.0000 </r>
       <r>    2.7390    1.0000 </r>
       <r>    2.9972    1.0000 </r>
       <r>    2.9991    1.0000 </r>
       <r>    3.0011    1.0000 </r>
       <r>    3.0122    1.0000 </r>
       <r>    3.0139    1.0000 </r>
       <r>    3.0146    1.0000 </r>
       <r>    3.3587    1.0000 </r>
       <r>    3.3618    1.0000 </r>
       <r>    3.3648    1.0000 </r>
       <r>    3.3797    1.0000 </r>
       <r>    3.3847    1.0000 </r>
       <r>    3.3892    1.0000 </r>
       <r>    3.4643    1.0000 </r>
       <r>    3.4666    1.0000 </r>
       <r>    3.4690    1.0000 </r>
       <r>    3.7325    1.0000 </r>
       <r>    3.7390    1.0000 </r>
       <r>    3.7409    1.0000 </r>
       <r>    3.7417    1.0000 </r>
       <r>    3.7436    1.0000 </r>
       <r>    3.7497    1.0000 </r>
       <r>    3.7779    1.0000 </r>
       <r>    3.7809    1.0000 </r>
       <r>    3.7835    1.0000 </r>
       <r>    4.0405    1.0000 </r>
       <r>    4.0956    1.0000 </r>
       <r>    4.0979    1.0000 </r>
       <r>    4.1004    1.0000 </r>
       <r>    4.3382    1.0000 </r>
       <r>    4.3410    1.0000 </r>
       <r>    4.3438    1.0000 </r>
       <r>    4.4007    1.0000 </r>
       <r>    4.4056    1.0000 </r>
       <r>    4.4114    1.0000 </r>
       <r>    4.5629    1.0000 </r>
       <r>    4.5629    1.0000 </r>
       <r>    4.8662    1.0000 </r>
       <r>    4.8701    1.0000 </r>
       <r>    4.8739    1.0000 </r>
       <r>    5.3497    1.0000 </r>
       <r>    5.3498    1.0000 </r>
       <r>    6.5596    0.0000 </r>
       <r>    6.5634    0.0000 </r>
       <r>    6.5671    0.0000 </r>
       <r>    6.9998    0.0000 </r>
       <r>    7.0045    0.0000 </r>
       <r>    7.0091    0.0000 </r>
       <r>    7.2337    0.0000 </r>
       <r>    7.4870    0.0000 </r>
       <r>    7.4908    0.0000 </r>
       <r>    7.4942    0.0000 </r>
       <r>    7.6152    0.0000 </r>
       <r>    7.6195    0.0000 </r>
       <r>    7.6240    0.0000 </r>
       <r>    7.7768    0.0000 </r>
       <r>    7.7797    0.0000 </r>
       <r>    7.7821    0.0000 </r>
       <r>    7.7983    0.0000 </r>
       <r>    7.8015    0.0000 </r>
       <r>    7.8046    0.0000 </r>
       <r>    8.0253    0.0000 </r>
       <r>    8.0264    0.0000 </r>
       <r>    8.0293    0.0000 </r>
       <r>    8.0318    0.0000 </r>
       <r>    8.0347    0.0000 </r>
       <r>    8.0357    0.0000 </r>
       <r>    8.0814    0.0000 </r>
       <r>    8.2920    0.0000 </r>
       <r>    8.2950    0.0000 </r>
       <r>    8.2979    0.0000 </r>
       <r>    8.4940    0.0000 </r>
       <r>    8.4985    0.0000 </r>
       <r>    8.5032    0.0000 </r>
       <r>    8.5048    0.0000 </r>
       <r>    8.5099    0.0000 </r>
       <r>    8.5145    0.0000 </r>
       <r>    8.5395    0.0000 </r>
      </set>
     </set>
    </set>
   </array>
  </eigenvalues>
  <separator name="orbital magnetization" >
   <v name="MAGDIPOLOUT">      0.00000000      0.00000000      0.00000000</v>
  </separator>
  <dos>
   <i name="efermi">      5.59622717 </i>
   <total>
    <array>
     <dimension dim="1">gridpoints</dimension>
     <dimension dim="2">spin</dimension>
     <field>energy</field>
     <field>total</field>
     <field>integrated</field>
     <set>
      <set comment="spin 1">
       <r>    -6.7200     0.0000     0.0000 </r>
       <r>    -6.6667     0.0000     0.0000 </r>
       <r>    -6.6134     0.0000     0.0000 </r>
       <r>    -6.5601     0.0000     0.0000 </r>
       <r>    -6.5068     0.0000     0.0000 </r>
       <r>    -6.4535     0.0000     0.0000 </r>
       <r>    -6.4002     0.0000     0.0000 </r>
       <r>    -6.3469     0.0000     0.0000 </r>
       <r>    -6.2936     0.0000     0.0000 </r>
       <r>    -6.2403     0.0000     0.0000 </r>
       <r>    -6.1870     0.0000     0.0000 </r>
       <r>    -6.1337     0.0013     0.0001 </r>
       <r>    -6.0804     0.2543     0.0136 </r>
       <r>    -6.0271     6.0732     0.3373 </r>
       <r>    -5.9738    20.2448     1.4164 </r>
       <r>    -5.9205    10.2014     1.9602 </r>
       <r>    -5.8672     0.7398     1.9996 </r>
       <r>    -5.8139     0.0069     2.0000 </r>
       <r>    -5.7606     0.0000     2.0000 </r>
       <r>    -5.7073     0.0000     2.0000 </r>
       <r>    -5.6540     0.0000     2.0000 </r>
       <r>    -5.6007     0.0071     2.0004 </r>
       <r>    -5.5473     1.1106     2.0596 </r>
       <r>    -5.4940    21.8939     3.2266 </r>
       <r>    -5.4407    61.5077     6.5051 </r>
       <r>    -5.3874    26.4000     7.9123 </r>
       <r>    -5.3341     1.6327     7.9993 </r>
       <r>    -5.2808     0.0129     8.0000 </r>
       <r>    -5.2275     0.0000     8.0000 </r>
       <r>    -5.1742     0.0000     8.0000 </r>
       <r>    -5.1209     0.0007     8.0000 </r>
       <r>    -5.0676     0.2235     8.0120 </r>
       <r>    -5.0143     9.2738     8.5063 </r>
       <r>    -4.9610    52.4731    11.3032 </r>
       <r>    -4.9077    44.7939    13.6909 </r>
       <r>    -4.8544     5.7026    13.9948 </r>
       <r>    -4.8011     0.0970    14.0000 </r>
       <r>    -4.7478     0.0002    14.0000 </r>
       <r>    -4.6945     0.0001    14.0000 </r>
       <r>    -4.6412     0.0387    14.0021 </r>
       <r>    -4.5879     2.1333    14.1158 </r>
       <r>    -4.5346    15.8351    14.9598 </r>
       <r>    -4.4813    26.1800    16.3553 </r>
       <r>    -4.4280    55.1563    19.2953 </r>
       <r>    -4.3747    44.9178    21.6895 </r>
       <r>    -4.3214     5.7273    21.9948 </r>
       <r>    -4.2681     0.0978    22.0000 </r>
       <r>    -4.2148     0.0002    22.0000 </r>
       <r>    -4.1615     0.0055    22.0003 </r>
       <r>    -4.1082     1.1423    22.0612 </r>
       <r>    -4.0549    30.5824    23.6913 </r>
       <r>    -4.0016   117.2202    29.9394 </r>
       <r>    -3.9483    69.8878    33.6646 </r>
       <r>    -3.8950     8.8304    34.1353 </r>
       <r>    -3.8417    32.6208    35.8741 </r>
       <r>    -3.7884    59.8971    39.0668 </r>
       <r>    -3.7351    16.8384    39.9643 </r>
       <r>    -3.6818     0.6663    39.9998 </r>
       <r>    -3.6285     0.0033    40.0000 </r>
       <r>    -3.5752     0.0000    40.0000 </r>
       <r>    -3.5219     0.0000    40.0000 </r>
       <r>    -3.4685     0.0044    40.0002 </r>
       <r>    -3.4152     0.8029    40.0430 </r>
       <r>    -3.3619    18.5498    41.0318 </r>
       <r>    -3.3086    60.6515    44.2647 </r>
       <r>    -3.2553    30.3268    45.8812 </r>
       <r>    -3.2020     2.2086    45.9989 </r>
       <r>    -3.1487     0.0209    46.0000 </r>
       <r>    -3.0954     0.0070    46.0004 </r>
       <r>    -3.0421     1.0913    46.0585 </r>
       <r>    -2.9888    21.6313    47.2115 </r>
       <r>    -2.9355    61.3947    50.4840 </r>
       <r>    -2.8822    27.9101    51.9717 </r>
       <r>    -2.8289    32.6750    53.7134 </r>
       <r>    -2.7756   117.5832    59.9809 </r>
       <r>    -2.7223    69.2313    63.6711 </r>
       <r>    -2.6690     6.0986    63.9962 </r>
       <r>    -2.6157     0.0718    64.0000 </r>
       <r>    -2.5624     0.0001    64.0000 </r>
       <r>    -2.5091     0.0000    64.0000 </r>
       <r>    -2.4558     0.0000    64.0000 </r>
       <r>    -2.4025     0.0000    64.0000 </r>
       <r>    -2.3492     0.0000    64.0000 </r>
       <r>    -2.2959     0.0000    64.0000 </r>
       <r>    -2.2426     0.0000    64.0000 </r>
       <r>    -2.1893     0.0000    64.0000 </r>
       <r>    -2.1360     0.0000    64.0000 </r>
       <r>    -2.0827     0.0000    64.0000 </r>
       <r>    -2.0294     0.0000    64.0000 </r>
       <r>    -1.9761     0.0000    64.0000 </r>
       <r>    -1.9228     0.0000    64.0000 </r>
       <r>    -1.8695     0.0000    64.0000 </r>
       <r>    -1.8162     0.0000    64.0000 </r>
       <r>    -1.7629     0.0000    64.0000 </r>
       <r>    -1.7096     0.0000    64.0000 </r>
       <r>    -1.6563     0.0000    64.0000 </r>
       <r>    -1.6030     0.0000    64.0000 </r>
       <r>    -1.5497     0.0000    64.0000 </r>
       <r>    -1.4964     0.0000    64.0000 </r>
       <r>    -1.4430     0.0000    64.0000 </r>
       <r>    -1.3897     0.0089    64.0005 </r>
       <r>    -1.3364     1.5816    64.0848 </r>
       <r>    -1.2831    36.3626    66.0230 </r>
       <r>    -1.2298   121.8748    72.5192 </r>
       <r>    -1.1765    87.0920    77.1615 </r>
       <r>    -1.1232    66.8800    80.7263 </r>
       <r>    -1.0699    39.1803    82.8148 </r>
       <r>    -1.0166    63.5416    86.2017 </r>
       <r>    -0.9633    67.0429    89.7753 </r>
       <r>    -0.9100    62.0464    93.0825 </r>
       <r>    -0.8567    16.5444    93.9644 </r>
       <r>    -0.8034     0.6653    93.9998 </r>
       <r>    -0.7501     0.0035    94.0000 </r>
       <r>    -0.6968     0.0000    94.0000 </r>
       <r>    -0.6435     0.0000    94.0000 </r>
       <r>    -0.5902     0.0000    94.0000 </r>
       <r>    -0.5369     0.0000    94.0000 </r>
       <r>    -0.4836     0.0000    94.0000 </r>
       <r>    -0.4303     0.0000    94.0000 </r>
       <r>    -0.3770     0.0034    94.0002 </r>
       <r>    -0.3237     0.4712    94.0253 </r>
       <r>    -0.2704     8.4861    94.4776 </r>
       <r>    -0.2171    32.7956    96.2257 </r>
       <r>    -0.1638    98.6800   101.4856 </r>
       <r>    -0.1105   103.7101   107.0136 </r>
       <r>    -0.0572    18.0634   107.9765 </r>
       <r>    -0.0039     0.4402   107.9999 </r>
       <r>     0.0494     0.0013   108.0000 </r>
       <r>     0.1027     0.0000   108.0000 </r>
       <r>     0.1560     0.0000   108.0000 </r>
       <r>     0.2093     0.0000   108.0000 </r>
       <r>     0.2626     0.0000   108.0000 </r>
       <r>     0.3159     0.0000   108.0000 </r>
       <r>     0.3692     0.0000   108.0000 </r>
       <r>     0.4225     0.0000   108.0000 </r>
       <r>     0.4758     0.0000   108.0000 </r>
       <r>     0.5291     0.0000   108.0000 </r>
       <r>     0.5825     0.0124   108.0007 </r>
       <r>     0.6358     1.5516   108.0834 </r>
       <r>     0.6891    25.4451   109.4397 </r>
       <r>     0.7424    61.2870   112.7064 </r>
       <r>     0.7957    22.9997   113.9324 </r>
       <r>     0.8490     1.2600   113.9995 </r>
       <r>     0.9023     0.0114   114.0001 </r>
       <r>     0.9556     0.5439   114.0291 </r>
       <r>     1.0089    15.2204   114.8404 </r>
       <r>     1.0622    59.0872   117.9899 </r>
       <r>     1.1155    34.7094   119.8400 </r>
       <r>     1.1688     2.9687   119.9982 </r>
       <r>     1.2221     0.0329   120.0000 </r>
       <r>     1.2754     0.0000   120.0000 </r>
       <r>     1.3287     0.0000   120.0000 </r>
       <r>     1.3820     0.0000   120.0000 </r>
       <r>     1.4353     0.0000   120.0000 </r>
       <r>     1.4886     0.0002   120.0000 </r>
       <r>     1.5419     0.1320   120.0071 </r>
       <r>     1.5952     9.0858   120.4913 </r>
       <r>     1.6485    85.3112   125.0387 </r>
       <r>     1.7018   146.0912   132.8257 </r>
       <r>     1.7551    81.2337   137.1557 </r>
       <r>     1.8084    15.3260   137.9726 </r>
       <r>     1.8617     0.5122   137.9999 </r>
       <r>     1.9150     0.0022   138.0000 </r>
       <r>     1.9683     0.0000   138.0000 </r>
       <r>     2.0216     0.0000   138.0000 </r>
       <r>     2.0749     0.0000   138.0000 </r>
       <r>     2.1282     0.0046   138.0002 </r>
       <r>     2.1815     0.8335   138.0447 </r>
       <r>     2.2348    19.0312   139.0591 </r>
       <r>     2.2881    63.2015   142.4279 </r>
       <r>     2.3414    74.3931   146.3932 </r>
       <r>     2.3947   145.8789   154.1690 </r>
       <r>     2.4480   114.5350   160.2740 </r>
       <r>     2.5013    30.5985   161.9049 </r>
       <r>     2.5546     1.7690   161.9992 </r>
       <r>     2.6079     0.0535   162.0021 </r>
       <r>     2.6613     4.2381   162.2280 </r>
       <r>     2.7146    59.4376   165.3962 </r>
       <r>     2.7679   121.5771   171.8766 </r>
       <r>     2.8212    38.1288   173.9089 </r>
       <r>     2.8745     1.7278   174.0010 </r>
       <r>     2.9278     3.2930   174.1765 </r>
       <r>     2.9811    51.1026   176.9004 </r>
       <r>     3.0344   121.3596   183.3692 </r>
       <r>     3.0877    46.6163   185.8540 </r>
       <r>     3.1410     2.7179   185.9989 </r>
       <r>     3.1943     0.0215   186.0000 </r>
       <r>     3.2476     0.0789   186.0042 </r>
       <r>     3.3009     5.8072   186.3138 </r>
       <r>     3.3542    63.0272   189.6733 </r>
       <r>     3.4075   121.2781   196.1377 </r>
       <r>     3.4608    81.7990   200.4978 </r>
       <r>     3.5141    55.5573   203.4591 </r>
       <r>     3.5674     9.8975   203.9867 </r>
       <r>     3.6207     0.3301   204.0043 </r>
       <r>     3.6740     6.7401   204.3636 </r>
       <r>     3.7273    78.9328   208.5709 </r>
       <r>     3.7806   165.1215   217.3723 </r>
       <r>     3.8339    78.2302   221.5422 </r>
       <r>     3.8872     8.4340   221.9917 </r>
       <r>     3.9405     0.2423   222.0046 </r>
       <r>     3.9938     3.5803   222.1955 </r>
       <r>     4.0471    26.3406   223.5995 </r>
       <r>     4.1004    65.2446   227.0772 </r>
       <r>     4.1537    48.3333   229.6535 </r>
       <r>     4.2070     6.3934   229.9943 </r>
       <r>     4.2603     1.3915   230.0685 </r>
       <r>     4.3136    24.0030   231.3479 </r>
       <r>     4.3669    76.5862   235.4301 </r>
       <r>     4.4202    83.1434   239.8619 </r>
       <r>     4.4735    37.2819   241.8491 </r>
       <r>     4.5268    14.3323   242.6131 </r>
       <r>     4.5801    40.0510   244.7479 </r>
       <r>     4.6334    21.7628   245.9079 </r>
       <r>     4.6868     1.7107   245.9991 </r>
       <r>     4.7401     0.0313   246.0007 </r>
       <r>     4.7934     1.7117   246.0920 </r>
       <r>     4.8467    26.9488   247.5284 </r>
       <r>     4.9000    61.3921   250.8008 </r>
       <r>     4.9533    21.4241   251.9427 </r>
       <r>     5.0066     1.0674   251.9996 </r>
       <r>     5.0599     0.0068   252.0000 </r>
       <r>     5.1132     0.0000   252.0000 </r>
       <r>     5.1665     0.0000   252.0000 </r>
       <r>     5.2198     0.0089   252.0005 </r>
       <r>     5.2731     1.1221   252.0603 </r>
       <r>     5.3264    17.9629   253.0178 </r>
       <r>     5.3797    41.0541   255.2061 </r>
       <r>     5.4330    14.1995   255.9629 </r>
       <r>     5.4863     0.6914   255.9998 </r>
       <r>     5.5396     0.0042   256.0000 </r>
       <r>     5.5929     0.0000   256.0000 </r>
       <r>     5.6462     0.0000   256.0000 </r>
       <r>     5.6995     0.0000   256.0000 </r>
       <r>     5.7528     0.0000   256.0000 </r>
       <r>     5.8061     0.0000   256.0000 </r>
       <r>     5.8594     0.0000   256.0000 </r>
       <r>     5.9127     0.0000   256.0000 </r>
       <r>     5.9660     0.0000   256.0000 </r>
       <r>     6.0193     0.0000   256.0000 </r>
       <r>     6.0726     0.0000   256.0000 </r>
       <r>     6.1259     0.0000   256.0000 </r>
       <r>     6.1792     0.0000   256.0000 </r>
       <r>     6.2325     0.0000   256.0000 </r>
       <r>     6.2858     0.0000   256.0000 </r>
       <r>     6.3391     0.0000   256.0000 </r>
       <r>     6.3924     0.0001   256.0000 </r>
       <r>     6.4457     0.0504   256.0027 </r>
       <r>     6.4990     3.8517   256.2080 </r>
       <r>     6.5523    38.6132   258.2662 </r>
       <r>     6.6056    56.9469   261.3016 </r>
       <r>     6.6589    12.7097   261.9791 </r>
       <r>     6.7123     0.3912   261.9999 </r>
       <r>     6.7656     0.0015   262.0000 </r>
       <r>     6.8189     0.0000   262.0000 </r>
       <r>     6.8722     0.0112   262.0006 </r>
       <r>     6.9255     1.4741   262.0792 </r>
       <r>     6.9788    24.9914   263.4113 </r>
       <r>     7.0321    61.4768   266.6882 </r>
       <r>     7.0854    23.3243   267.9314 </r>
       <r>     7.1387     1.4128   268.0067 </r>
       <r>     7.1920     4.3349   268.2378 </r>
       <r>     7.2453    19.1096   269.2564 </r>
       <r>     7.2986    12.7026   269.9334 </r>
       <r>     7.3519     1.2382   269.9994 </r>
       <r>     7.4052     0.9090   270.0479 </r>
       <r>     7.4585    19.5876   271.0920 </r>
       <r>     7.5118    61.1183   274.3497 </r>
       <r>     7.5651    35.9476   276.2658 </r>
       <r>     7.6184    49.8142   278.9211 </r>
       <r>     7.6717    49.9435   281.5832 </r>
       <r>     7.7250    16.3259   282.4534 </r>
       <r>     7.7783    75.0260   286.4525 </r>
       <r>     7.8316   111.4330   292.3921 </r>
       <r>     7.8849    28.9707   293.9364 </r>
       <r>     7.9382     2.2638   294.0570 </r>
       <r>     7.9915    29.9298   295.6524 </r>
       <r>     8.0448   122.3197   302.1723 </r>
       <r>     8.0981    90.8793   307.0164 </r>
       <r>     8.1514    17.4806   307.9482 </r>
       <r>     8.2047     1.5737   308.0321 </r>
       <r>     8.2580    16.1157   308.8911 </r>
       <r>     8.3113    59.5879   312.0673 </r>
       <r>     8.3646    33.4995   313.8529 </r>
       <r>     8.4179     4.6011   314.0981 </r>
       <r>     8.4712    39.2629   316.1909 </r>
       <r>     8.5245   130.4009   323.1416 </r>
       <r>     8.5778    80.5682   327.4361 </r>
       <r>     8.6311    10.3151   327.9860 </r>
       <r>     8.6844     0.2623   327.9999 </r>
       <r>     8.7377     0.0011   328.0000 </r>
       <r>     8.7911     0.0000   328.0000 </r>
       <r>     8.8444     0.0000   328.0000 </r>
       <r>     8.8977     0.0000   328.0000 </r>
       <r>     8.9510     0.0000   328.0000 </r>
       <r>     9.0043     0.0000   328.0000 </r>
       <r>     9.0576     0.0000   328.0000 </r>
       <r>     9.1109     0.0000   328.0000 </r>
       <r>     9.1642     0.0000   328.0000 </r>
       <r>     9.2175     0.0000   328.0000 </r>
       <r>     9.2708     0.0000   328.0000 </r>
      </set>
     </set>
    </array>
   </total>
  </dos>
 </calculation>
 <structure name="finalpos" >
  <crystal>
   <varray name="basis" >
    <v>      10.93252578       0.00000000       0.00000000 </v>
    <v>       0.00000000      10.93252578       0.00000000 </v>
    <v>       0.00000000       0.00000000      10.93252578 </v>
   </varray>
   <i name="volume">   1306.65679237 </i>
   <varray name="rec_basis" >
    <v>       0.09147017       0.00000000       0.00000000 </v>
    <v>       0.00000000       0.09147017       0.00000000 </v>
    <v>       0.00000000       0.00000000       0.09147017 </v>
   </varray>
  </crystal>
  <varray name="positions" >
   <v>       0.44024411       0.43750000       0.43750000 </v>
   <v>       0.93750000       0.43750000       0.43750000 </v>
   <v>       0.43750000       0.93750000       0.43750000 </v>
   <v>       0.93750000       0.93750000       0.43750000 </v>
   <v>       0.43750000       0.43750000       0.93750000 </v>
   <v>       0.93750000       0.43750000       0.93750000 </v>
   <v>       0.43750000       0.93750000       0.93750000 </v>
   <v>       0.93750000       0.93750000       0.93750000 </v>
   <v>       0.43750000       0.18750000       0.18750000 </v>
   <v>       0.93750000       0.18750000       0.18750000 </v>
   <v>       0.43750000       0.68750000       0.18750000 </v>
   <v>       0.93750000       0.68750000       0.18750000 </v>
   <v>       0.43750000       0.18750000       0.68750000 </v>
   <v>       0.93750000       0.18750000       0.68750000 </v>
   <v>       0.43750000       0.68750000       0.68750000 </v>
   <v>       0.93750000       0.68750000       0.68750000 </v>
   <v>       0.18750000       0.43750000       0.18750000 </v>
   <v>       0.68750000       0.43750000       0.18750000 </v>
   <v>       0.18750000       0.93750000       0.18750000 </v>
   <v>       0.68750000       0.93750000       0.18750000 </v>
   <v>       0.18750000       0.43750000       0.68750000 </v>
   <v>       0.68750000       0.43750000       0.68750000 </v>
   <v>       0.18750000       0.93750000       0.68750000 </v>
   <v>       0.68750000       0.93750000       0.68750000 </v>
   <v>       0.18750000       0.18750000       0.43750000 </v>
   <v>       0.68750000       0.18750000       0.43750000 </v>
   <v>       0.18750000       0.68750000       0.43750000 </v>
   <v>       0.68750000       0.68750000       0.43750000 </v>
   <v>       0.18750000       0.18750000       0.93750000 </v>
   <v>       0.68750000       0.18750000       0.93750000 </v>
   <v>       0.18750000       0.68750000       0.93750000 </v>
   <v>       0.68750000       0.68750000       0.93750000 </v>
   <v>       0.06250000       0.06250000       0.06250000 </v>
   <v>       0.56250000       0.06250000       0.06250000 </v>
   <v>       0.06524411       0.56250000       0.06250000 </v>
   <v>       0.56250000       0.56250000       0.06250000 </v>
   <v>       0.06250000       0.06250000       0.56250000 </v>
   <v>       0.56250000       0.06250000       0.56250000 </v>
   <v>       0.06250000       0.56250000       0.56250000 </v>
   <v>       0.56250000       0.56250000       0.56250000 </v>
   <v>       0.06250000       0.31250000       0.31250000 </v>
   <v>       0.56250000       0.31250000       0.31250000 </v>
   <v>       0.06250000       0.81250000       0.31250000 </v>
   <v>       0.56250000       0.81250000       0.31250000 </v>
   <v>       0.06250000       0.31250000       0.81250000 </v>
   <v>       0.56250000       0.31250000       0.81250000 </v>
   <v>       0.06250000       0.81250000       0.81250000 </v>
   <v>       0.56250000       0.81250000       0.81250000 </v>
   <v>       0.31250000       0.06250000       0.31250000 </v>
   <v>       0.81250000       0.06250000       0.31250000 </v>
   <v>       0.31250000       0.56250000       0.31250000 </v>
   <v>       0.81250000       0.56250000       0.31250000 </v>
   <v>       0.31250000       0.06250000       0.81250000 </v>
   <v>       0.81250000       0.06250000       0.81250000 </v>
   <v>       0.31250000       0.56250000       0.81250000 </v>
   <v>       0.81250000       0.56250000       0.81250000 </v>
   <v>       0.31250000       0.31250000       0.06250000 </v>
   <v>       0.81250000       0.31250000       0.06250000 </v>
   <v>       0.31250000       0.81250000       0.06250000 </v>
   <v>       0.81250000       0.81250000       0.06250000 </v>
   <v>       0.31250000       0.31250000       0.56250000 </v>
   <v>       0.81250000       0.31250000       0.56250000 </v>
   <v>       0.31250000       0.81250000       0.56250000 </v>
   <v>       0.81250000       0.81250000       0.56250000 </v>
  </varray>
 </structure>
</modeling>
