<?xml version="1.0" encoding="ISO-8859-1"?>
<modeling>
 <generator>
  <i name="program" type="string">vasp </i>
  <i name="version" type="string">5.4.1  </i>
  <i name="subversion" type="string">05Feb16 (build Mar 26 2016 11:58:25) complex                          parallel </i>
  <i name="platform" type="string">IFC91_ompi </i>
  <i name="date" type="string">2017 03 12 </i>
  <i name="time" type="string">12:13:56 </i>
 </generator>
 <incar>
  <i type="string" name="PREC">accurate</i>
  <i type="int" name="IALGO">    38</i>
  <i type="logical" name="ADDGRID"> T  </i>
  <i type="int" name="NELMIN">     5</i>
  <i type="int" name="IBRION">    -1</i>
  <i name="EDIFF">      0.00000001</i>
  <i name="ENCUT">    300.00000000</i>
  <i type="logical" name="LREAL"> F  </i>
  <i type="int" name="ISMEAR">     0</i>
  <i name="SIGMA">      0.05000000</i>
  <i type="logical" name="LWAVE"> F  </i>
  <i type="logical" name="LCHARG"> F  </i>
  <v type="int" name="KPOINT_BSE">    -1     0     0     0</v>
 </incar>
 <kpoints>
  <generation param="Monkhorst-Pack">
   <v type="int" name="divisions">       2        2        2 </v>
   <v name="usershift">      0.00000000       0.00000000       0.00000000 </v>
   <v name="genvec1">      0.50000000       0.00000000       0.00000000 </v>
   <v name="genvec2">      0.00000000       0.50000000       0.00000000 </v>
   <v name="genvec3">      0.00000000       0.00000000       0.50000000 </v>
   <v name="shift">      0.50000000       0.50000000       0.50000000 </v>
  </generation>
  <varray name="kpointlist" >
   <v>       0.25000000       0.25000000       0.25000000 </v>
   <v>       0.25000000      -0.25000000       0.25000000 </v>
  </varray>
  <varray name="weights" >
   <v>       0.50000000 </v>
   <v>       0.50000000 </v>
  </varray>
 </kpoints>
 <parameters>
  <separator name="general" >
   <i type="string" name="SYSTEM">unknown system</i>
   <i type="logical" name="LCOMPAT"> F  </i>
  </separator>
  <separator name="electronic" >
   <i type="string" name="PREC">accura</i>
   <i name="ENMAX">    300.00000000</i>
   <i name="ENAUG">    322.06900000</i>
   <i name="EDIFF">      0.00000001</i>
   <i type="int" name="IALGO">    38</i>
   <i type="int" name="IWAVPR">    10</i>
   <i type="int" name="NBANDS">   164</i>
   <i name="NELECT">    256.00000000</i>
   <i type="int" name="TURBO">     0</i>
   <i type="int" name="IRESTART">     0</i>
   <i type="int" name="NREBOOT">     0</i>
   <i type="int" name="NMIN">     0</i>
   <i name="EREF">      0.00000000</i>
   <separator name="electronic smearing" >
    <i type="int" name="ISMEAR">     0</i>
    <i name="SIGMA">      0.05000000</i>
    <i name="KSPACING">      0.50000000</i>
    <i type="logical" name="KGAMMA"> T  </i>
   </separator>
   <separator name="electronic projectors" >
    <i type="logical" name="LREAL"> F  </i>
    <v name="ROPT">      0.00000000</v>
    <i type="int" name="LMAXPAW">  -100</i>
    <i type="int" name="LMAXMIX">     2</i>
    <i type="logical" name="NLSPLINE"> F  </i>
   </separator>
   <separator name="electronic startup" >
    <i type="int" name="ISTART">     0</i>
    <i type="int" name="ICHARG">     2</i>
    <i type="int" name="INIWAV">     1</i>
   </separator>
   <separator name="electronic spin" >
    <i type="int" name="ISPIN">     1</i>
    <i type="logical" name="LNONCOLLINEAR"> F  </i>
    <v name="MAGMOM">      1.00000000      1.00000000      1.00000000      1.00000000      1.00000000      1.00000000      1.00000000      1.00000000      1.00000000      1.00000000      1.00000000      1.00000000      1.00000000      1.00000000      1.00000000      1.00000000      1.00000000      1.00000000      1.00000000      1.00000000
      1.00000000      1.00000000      1.00000000      1.00000000      1.00000000      1.00000000      1.00000000      1.00000000      1.00000000      1.00000000      1.00000000      1.00000000      1.00000000      1.00000000      1.00000000      1.00000000      1.00000000      1.00000000      1.00000000      1.00000000
      1.00000000      1.00000000      1.00000000      1.00000000      1.00000000      1.00000000      1.00000000      1.00000000      1.00000000      1.00000000      1.00000000      1.00000000      1.00000000      1.00000000      1.00000000      1.00000000      1.00000000      1.00000000      1.00000000      1.00000000
      1.00000000      1.00000000      1.00000000      1.00000000</v>
    <i name="NUPDOWN">     -1.00000000</i>
    <i type="logical" name="LSORBIT"> F  </i>
    <v name="SAXIS">      0.00000000      0.00000000      1.00000000</v>
    <i type="logical" name="LSPIRAL"> F  </i>
    <v name="QSPIRAL">      0.00000000      0.00000000      0.00000000</v>
    <i type="logical" name="LZEROZ"> F  </i>
   </separator>
   <separator name="electronic exchange-correlation" >
    <i type="logical" name="LASPH"> F  </i>
    <i type="logical" name="LMETAGGA"> F  </i>
   </separator>
   <separator name="electronic convergence" >
    <i type="int" name="NELM">    60</i>
    <i type="int" name="NELMDL">    -5</i>
    <i type="int" name="NELMIN">     5</i>
    <i name="ENINI">    300.00000000</i>
    <separator name="electronic convergence detail" >
     <i type="logical" name="LDIAG"> T  </i>
     <i type="logical" name="LSUBROT"> F  </i>
     <i name="WEIMIN">      0.00000000</i>
     <i name="EBREAK">      0.00000000</i>
     <i name="DEPER">      0.30000000</i>
     <i type="int" name="NRMM">     4</i>
     <i name="TIME">      0.40000000</i>
    </separator>
   </separator>
   <separator name="electronic mixer" >
    <i name="AMIX">      0.40000000</i>
    <i name="BMIX">      1.00000000</i>
    <i name="AMIN">      0.10000000</i>
    <i name="AMIX_MAG">      1.60000000</i>
    <i name="BMIX_MAG">      1.00000000</i>
    <separator name="electronic mixer details" >
     <i type="int" name="IMIX">     4</i>
     <i type="logical" name="MIXFIRST"> F  </i>
     <i type="int" name="MAXMIX">   -45</i>
     <i name="WC">    100.00000000</i>
     <i type="int" name="INIMIX">     1</i>
     <i type="int" name="MIXPRE">     1</i>
     <i type="int" name="MREMOVE">     5</i>
    </separator>
   </separator>
   <separator name="electronic dipolcorrection" >
    <i type="logical" name="LDIPOL"> F  </i>
    <i type="logical" name="LMONO"> F  </i>
    <i type="int" name="IDIPOL">     0</i>
    <i name="EPSILON">      1.00000000</i>
    <v name="DIPOL">   -100.00000000   -100.00000000   -100.00000000</v>
    <i name="EFIELD">      0.00000000</i>
   </separator>
  </separator>
  <separator name="grids" >
   <i type="int" name="NGX">    64</i>
   <i type="int" name="NGY">    64</i>
   <i type="int" name="NGZ">    64</i>
   <i type="int" name="NGXF">   128</i>
   <i type="int" name="NGYF">   128</i>
   <i type="int" name="NGZF">   128</i>
   <i type="logical" name="ADDGRID"> T  </i>
  </separator>
  <separator name="ionic" >
   <i type="int" name="NSW">     0</i>
   <i type="int" name="IBRION">    -1</i>
   <i type="int" name="ISIF">     2</i>
   <i name="PSTRESS">      0.00000000</i>
   <i name="EDIFFG">      0.00000010</i>
   <i type="int" name="NFREE">     0</i>
   <i name="POTIM">      0.50000000</i>
   <i name="SMASS">     -3.00000000</i>
   <i name="SCALEE">      1.00000000</i>
  </separator>
  <separator name="ionic md" >
   <i name="TEBEG">      0.00010000</i>
   <i name="TEEND">      0.00010000</i>
   <i type="int" name="NBLOCK">     1</i>
   <i type="int" name="KBLOCK">     1</i>
   <i type="int" name="NPACO">   256</i>
   <i name="APACO">     16.00000000</i>
  </separator>
  <separator name="symmetry" >
   <i type="int" name="ISYM">     2</i>
   <i name="SYMPREC">      0.00001000</i>
  </separator>
  <separator name="dos" >
   <i type="logical" name="LORBIT"> F  </i>
   <v name="RWIGS">     -1.00000000</v>
   <i type="int" name="NEDOS">   301</i>
   <i name="EMIN">     10.00000000</i>
   <i name="EMAX">    -10.00000000</i>
   <i name="EFERMI">      0.00000000</i>
  </separator>
  <separator name="writing" >
   <i type="int" name="NWRITE">     2</i>
   <i type="logical" name="LWAVE"> F  </i>
   <i type="logical" name="LCHARG"> F  </i>
   <i type="logical" name="LPARD"> F  </i>
   <i type="logical" name="LVTOT"> F  </i>
   <i type="logical" name="LVHAR"> F  </i>
   <i type="logical" name="LELF"> F  </i>
   <i type="logical" name="LOPTICS"> F  </i>
   <v name="STM">      0.00000000      0.00000000      0.00000000      0.00000000      0.00000000      0.00000000      0.00000000</v>
  </separator>
  <separator name="performance" >
   <i type="int" name="NPAR">     4</i>
   <i type="int" name="NSIM">     4</i>
   <i type="int" name="NBLK">    -1</i>
   <i type="logical" name="LPLANE"> T  </i>
   <i type="logical" name="LSCALAPACK"> T  </i>
   <i type="logical" name="LSCAAWARE"> F  </i>
   <i type="logical" name="LSCALU"> F  </i>
   <i type="logical" name="LASYNC"> F  </i>
   <i type="logical" name="LORBITALREAL"> F  </i>
  </separator>
  <separator name="miscellaneous" >
   <i type="int" name="IDIOT">     3</i>
   <i type="logical" name="LMUSIC"> F  </i>
   <v name="POMASS">     28.08500000</v>
   <v name="DARWINR">      0.00000000</v>
   <v name="DARWINV">      1.00000000</v>
   <i type="logical" name="LCORR"> T  </i>
  </separator>
  <i type="logical" name="GGA_COMPAT"> T  </i>
  <i type="logical" name="LBERRY"> F  </i>
  <i type="int" name="ICORELEVEL">     0</i>
  <i type="logical" name="LDAU"> F  </i>
  <i type="int" name="I_CONSTRAINED_M">     0</i>
  <separator name="electronic exchange-correlation" >
   <i type="string" name="GGA">--</i>
   <i type="int" name="VOSKOWN">     0</i>
   <i type="logical" name="LHFCALC"> F  </i>
   <i type="string" name="PRECFOCK"></i>
   <i type="logical" name="LSYMGRAD"> F  </i>
   <i type="logical" name="LHFONE"> F  </i>
   <i type="logical" name="LRHFCALC"> F  </i>
   <i type="logical" name="LTHOMAS"> F  </i>
   <i type="logical" name="LMODELHF"> F  </i>
   <i name="ENCUT4O">     -1.00000000</i>
   <i type="int" name="EXXOEP">     0</i>
   <i type="int" name="FOURORBIT">     0</i>
   <i name="AEXX">      0.00000000</i>
   <i name="HFALPHA">      0.00000000</i>
   <i name="MCALPHA">      0.00000000</i>
   <i name="ALDAX">      1.00000000</i>
   <i name="AGGAX">      1.00000000</i>
   <i name="ALDAC">      1.00000000</i>
   <i name="AGGAC">      1.00000000</i>
   <i type="int" name="NKREDX">     1</i>
   <i type="int" name="NKREDY">     1</i>
   <i type="int" name="NKREDZ">     1</i>
   <i type="logical" name="SHIFTRED"> F  </i>
   <i type="logical" name="ODDONLY"> F  </i>
   <i type="logical" name="EVENONLY"> F  </i>
   <i type="int" name="LMAXFOCK">     0</i>
   <i type="int" name="NMAXFOCKAE">     0</i>
   <i type="logical" name="LFOCKAEDFT"> F  </i>
   <i name="HFSCREEN">      0.00000000</i>
   <i name="HFSCREENC">      0.00000000</i>
   <i type="int" name="NBANDSGWLOW">     0</i>
  </separator>
  <separator name="vdW DFT" >
   <i type="logical" name="LUSE_VDW"> F  </i>
   <i name="Zab_VDW">     -0.84910000</i>
   <i name="PARAM1">      0.12340000</i>
   <i name="PARAM2">      1.00000000</i>
   <i name="PARAM3">      0.00000000</i>
  </separator>
  <separator name="model GW" >
   <i type="int" name="MODEL_GW">     0</i>
   <i name="MODEL_EPS0">     12.24990743</i>
   <i name="MODEL_ALPHA">      1.00000000</i>
  </separator>
  <separator name="linear response parameters" >
   <i type="logical" name="LEPSILON"> F  </i>
   <i type="logical" name="LRPA"> F  </i>
   <i type="logical" name="LNABLA"> F  </i>
   <i type="logical" name="LVEL"> F  </i>
   <i type="int" name="KINTER">     0</i>
   <i name="CSHIFT">      0.10000000</i>
   <i name="OMEGAMAX">     -1.00000000</i>
   <i name="DEG_THRESHOLD">      0.00200000</i>
  </separator>
  <separator name="orbital magnetization" >
   <i type="logical" name="NUCIND"> F  </i>
   <v name="MAGPOS">      0.00000000      0.00000000      0.00000000</v>
   <i type="logical" name="LNICSALL"> T  </i>
   <i type="logical" name="ORBITALMAG"> F  </i>
   <i type="logical" name="LMAGBLOCH"> F  </i>
   <i type="logical" name="LCHIMAG"> F  </i>
   <i type="logical" name="LGAUGE"> T  </i>
   <i type="int" name="MAGATOM">     0</i>
   <v name="MAGDIPOL">      0.00000000      0.00000000      0.00000000</v>
   <v name="AVECCONST">      0.00000000      0.00000000      0.00000000</v>
  </separator>
  <separator name="response functions" >
   <i type="logical" name="LADDER"> F  </i>
   <i type="logical" name="LFXC"> F  </i>
   <i type="logical" name="LHARTREE"> T  </i>
   <i type="int" name="IBSE">     0</i>
   <v type="int" name="KPOINT">    -1     0     0     0</v>
   <i type="logical" name="LTCTE"> F  </i>
   <i type="logical" name="LTETE"> F  </i>
   <i type="logical" name="LTRIPLET"> F  </i>
   <i type="logical" name="LFXCEPS"> F  </i>
   <i type="logical" name="LFXHEG"> F  </i>
   <i type="int" name="NATURALO">     0</i>
   <i type="logical" name="L2ORDER"> F  </i>
   <i type="logical" name="LUSEW"> F  </i>
   <i name="ENCUTGW">     -2.00000000</i>
   <i name="ENCUTGWSOFT">     -2.00000000</i>
   <i name="ENCUTLF">     -1.00000000</i>
   <i type="int" name="LMAXMP2">    -1</i>
   <i name="SCISSOR">      0.00000000</i>
   <i type="int" name="NOMEGA">     0</i>
   <i type="int" name="NOMEGAR">     0</i>
   <i type="int" name="NBANDSGW">    -1</i>
   <i type="int" name="NBANDSO">    -1</i>
   <i type="int" name="NBANDSV">    -1</i>
   <i type="int" name="NELM">     1</i>
   <i type="int" name="NELMHF">     1</i>
   <i type="int" name="DIM">     3</i>
   <i type="int" name="ANTIRES">     0</i>
   <i name="OMEGAMAX">    -30.00000000</i>
   <i name="OMEGAMIN">    -30.00000000</i>
   <i name="OMEGATL">   -200.00000000</i>
   <i type="int" name="OMEGAGRID">     0</i>
   <i name="CSHIFT">     -0.10000000</i>
   <i type="logical" name="SELFENERGY"> F  </i>
   <i type="logical" name="LSPECTRAL"> F  </i>
   <i type="logical" name="LSPECTRALGW"> F  </i>
   <i type="logical" name="LSINGLES"> F  </i>
   <i type="logical" name="LFERMIGW"> F  </i>
   <i type="logical" name="ODDONLYGW"> F  </i>
   <i type="logical" name="EVENONLYGW"> F  </i>
   <i type="int" name="NKREDLFX">     1</i>
   <i type="int" name="NKREDLFY">     1</i>
   <i type="int" name="NKREDLFZ">     1</i>
   <i type="int" name="MAXMEM">  1800</i>
   <i type="int" name="TELESCOPE">     0</i>
   <i type="int" name="TAUPAR">     1</i>
   <i type="int" name="OMEGAPAR">    -1</i>
   <i name="LAMBDA">      1.00000000</i>
  </separator>
  <separator name="External order field" >
   <i name="OFIELD_KAPPA">      0.00000000</i>
   <v name="OFIELD_K">      0.00000000      0.00000000      0.00000000</v>
   <i name="OFIELD_Q6_NEAR">      0.00000000</i>
   <i name="OFIELD_Q6_FAR">      0.00000000</i>
   <i name="OFIELD_A">      0.00000000</i>
  </separator>
 </parameters>
 <atominfo>
  <atoms>      64 </atoms>
  <types>       1 </types>
  <array name="atoms" >
   <dimension dim="1">ion</dimension>
   <field type="string">element</field>
   <field type="int">atomtype</field>
   <set>
    <rc><c>Si</c><c>   1</c></rc>
    <rc><c>Si</c><c>   1</c></rc>
    <rc><c>Si</c><c>   1</c></rc>
    <rc><c>Si</c><c>   1</c></rc>
    <rc><c>Si</c><c>   1</c></rc>
    <rc><c>Si</c><c>   1</c></rc>
    <rc><c>Si</c><c>   1</c></rc>
    <rc><c>Si</c><c>   1</c></rc>
    <rc><c>Si</c><c>   1</c></rc>
    <rc><c>Si</c><c>   1</c></rc>
    <rc><c>Si</c><c>   1</c></rc>
    <rc><c>Si</c><c>   1</c></rc>
    <rc><c>Si</c><c>   1</c></rc>
    <rc><c>Si</c><c>   1</c></rc>
    <rc><c>Si</c><c>   1</c></rc>
    <rc><c>Si</c><c>   1</c></rc>
    <rc><c>Si</c><c>   1</c></rc>
    <rc><c>Si</c><c>   1</c></rc>
    <rc><c>Si</c><c>   1</c></rc>
    <rc><c>Si</c><c>   1</c></rc>
    <rc><c>Si</c><c>   1</c></rc>
    <rc><c>Si</c><c>   1</c></rc>
    <rc><c>Si</c><c>   1</c></rc>
    <rc><c>Si</c><c>   1</c></rc>
    <rc><c>Si</c><c>   1</c></rc>
    <rc><c>Si</c><c>   1</c></rc>
    <rc><c>Si</c><c>   1</c></rc>
    <rc><c>Si</c><c>   1</c></rc>
    <rc><c>Si</c><c>   1</c></rc>
    <rc><c>Si</c><c>   1</c></rc>
    <rc><c>Si</c><c>   1</c></rc>
    <rc><c>Si</c><c>   1</c></rc>
    <rc><c>Si</c><c>   1</c></rc>
    <rc><c>Si</c><c>   1</c></rc>
    <rc><c>Si</c><c>   1</c></rc>
    <rc><c>Si</c><c>   1</c></rc>
    <rc><c>Si</c><c>   1</c></rc>
    <rc><c>Si</c><c>   1</c></rc>
    <rc><c>Si</c><c>   1</c></rc>
    <rc><c>Si</c><c>   1</c></rc>
    <rc><c>Si</c><c>   1</c></rc>
    <rc><c>Si</c><c>   1</c></rc>
    <rc><c>Si</c><c>   1</c></rc>
    <rc><c>Si</c><c>   1</c></rc>
    <rc><c>Si</c><c>   1</c></rc>
    <rc><c>Si</c><c>   1</c></rc>
    <rc><c>Si</c><c>   1</c></rc>
    <rc><c>Si</c><c>   1</c></rc>
    <rc><c>Si</c><c>   1</c></rc>
    <rc><c>Si</c><c>   1</c></rc>
    <rc><c>Si</c><c>   1</c></rc>
    <rc><c>Si</c><c>   1</c></rc>
    <rc><c>Si</c><c>   1</c></rc>
    <rc><c>Si</c><c>   1</c></rc>
    <rc><c>Si</c><c>   1</c></rc>
    <rc><c>Si</c><c>   1</c></rc>
    <rc><c>Si</c><c>   1</c></rc>
    <rc><c>Si</c><c>   1</c></rc>
    <rc><c>Si</c><c>   1</c></rc>
    <rc><c>Si</c><c>   1</c></rc>
    <rc><c>Si</c><c>   1</c></rc>
    <rc><c>Si</c><c>   1</c></rc>
    <rc><c>Si</c><c>   1</c></rc>
    <rc><c>Si</c><c>   1</c></rc>
   </set>
  </array>
  <array name="atomtypes" >
   <dimension dim="1">type</dimension>
   <field type="int">atomspertype</field>
   <field type="string">element</field>
   <field>mass</field>
   <field>valence</field>
   <field type="string">pseudopotential</field>
   <set>
    <rc><c>  64</c><c>Si</c><c>     28.08500000</c><c>      4.00000000</c><c>  PAW_PBE Si 05Jan2001                  </c></rc>
   </set>
  </array>
 </atominfo>
 <structure name="initialpos" >
  <crystal>
   <varray name="basis" >
    <v>      10.93252578       0.00000000       0.00000000 </v>
    <v>       0.00000000      10.93252578       0.00000000 </v>
    <v>       0.00000000       0.00000000      10.93252578 </v>
   </varray>
   <i name="volume">   1306.65679237 </i>
   <varray name="rec_basis" >
    <v>       0.09147017       0.00000000       0.00000000 </v>
    <v>       0.00000000       0.09147017       0.00000000 </v>
    <v>       0.00000000       0.00000000       0.09147017 </v>
   </varray>
  </crystal>
  <varray name="positions" >
   <v>       0.44024411       0.43750000       0.43750000 </v>
   <v>       0.93750000       0.43750000       0.43750000 </v>
   <v>       0.43750000       0.93750000       0.43750000 </v>
   <v>       0.93750000       0.93750000       0.43750000 </v>
   <v>       0.43750000       0.43750000       0.93750000 </v>
   <v>       0.93750000       0.43750000       0.93750000 </v>
   <v>       0.43750000       0.93750000       0.93750000 </v>
   <v>       0.93750000       0.93750000       0.93750000 </v>
   <v>       0.44024411       0.18750000       0.18750000 </v>
   <v>       0.93750000       0.18750000       0.18750000 </v>
   <v>       0.43750000       0.68750000       0.18750000 </v>
   <v>       0.93750000       0.68750000       0.18750000 </v>
   <v>       0.43750000       0.18750000       0.68750000 </v>
   <v>       0.93750000       0.18750000       0.68750000 </v>
   <v>       0.43750000       0.68750000       0.68750000 </v>
   <v>       0.93750000       0.68750000       0.68750000 </v>
   <v>       0.18750000       0.43750000       0.18750000 </v>
   <v>       0.68750000       0.43750000       0.18750000 </v>
   <v>       0.18750000       0.93750000       0.18750000 </v>
   <v>       0.68750000       0.93750000       0.18750000 </v>
   <v>       0.18750000       0.43750000       0.68750000 </v>
   <v>       0.68750000       0.43750000       0.68750000 </v>
   <v>       0.18750000       0.93750000       0.68750000 </v>
   <v>       0.68750000       0.93750000       0.68750000 </v>
   <v>       0.18750000       0.18750000       0.43750000 </v>
   <v>       0.68750000       0.18750000       0.43750000 </v>
   <v>       0.18750000       0.68750000       0.43750000 </v>
   <v>       0.68750000       0.68750000       0.43750000 </v>
   <v>       0.18750000       0.18750000       0.93750000 </v>
   <v>       0.68750000       0.18750000       0.93750000 </v>
   <v>       0.18750000       0.68750000       0.93750000 </v>
   <v>       0.68750000       0.68750000       0.93750000 </v>
   <v>       0.06250000       0.06250000       0.06250000 </v>
   <v>       0.56250000       0.06250000       0.06250000 </v>
   <v>       0.06250000       0.56250000       0.06250000 </v>
   <v>       0.56250000       0.56250000       0.06250000 </v>
   <v>       0.06250000       0.06250000       0.56250000 </v>
   <v>       0.56250000       0.06250000       0.56250000 </v>
   <v>       0.06250000       0.56250000       0.56250000 </v>
   <v>       0.56250000       0.56250000       0.56250000 </v>
   <v>       0.06250000       0.31250000       0.31250000 </v>
   <v>       0.56250000       0.31250000       0.31250000 </v>
   <v>       0.06250000       0.81250000       0.31250000 </v>
   <v>       0.56250000       0.81250000       0.31250000 </v>
   <v>       0.06250000       0.31250000       0.81250000 </v>
   <v>       0.56250000       0.31250000       0.81250000 </v>
   <v>       0.06250000       0.81250000       0.81250000 </v>
   <v>       0.56250000       0.81250000       0.81250000 </v>
   <v>       0.31250000       0.06250000       0.31250000 </v>
   <v>       0.81250000       0.06250000       0.31250000 </v>
   <v>       0.31250000       0.56250000       0.31250000 </v>
   <v>       0.81250000       0.56250000       0.31250000 </v>
   <v>       0.31250000       0.06250000       0.81250000 </v>
   <v>       0.81250000       0.06250000       0.81250000 </v>
   <v>       0.31250000       0.56250000       0.81250000 </v>
   <v>       0.81250000       0.56250000       0.81250000 </v>
   <v>       0.31250000       0.31250000       0.06250000 </v>
   <v>       0.81250000       0.31250000       0.06250000 </v>
   <v>       0.31250000       0.81250000       0.06250000 </v>
   <v>       0.81250000       0.81250000       0.06250000 </v>
   <v>       0.31250000       0.31250000       0.56250000 </v>
   <v>       0.81250000       0.31250000       0.56250000 </v>
   <v>       0.31250000       0.81250000       0.56250000 </v>
   <v>       0.81250000       0.81250000       0.56250000 </v>
  </varray>
 </structure>
 <calculation>
  <scstep>
   <time name="dav">    2.12    2.12</time>
   <time name="total">    2.30    2.30</time>
   <energy>
    <i name="alphaZ">    105.52440745 </i>
    <i name="ewald">  -7265.46798977 </i>
    <i name="hartreedc">   -361.71557817 </i>
    <i name="XCdc">   -597.75713224 </i>
    <i name="pawpsdc">   5639.92317535 </i>
    <i name="pawaedc">  -4513.95313856 </i>
    <i name="eentropy">     -0.00626119 </i>
    <i name="bandstr">    861.11631924 </i>
    <i name="atom">   6596.14994790 </i>
    <i name="e_fr_energy">    463.81375002 </i>
    <i name="e_wo_entrp">    463.82001121 </i>
    <i name="e_0_energy">    463.81688062 </i>
   </energy>
  </scstep>
  <scstep>
   <time name="dav">    2.41    2.41</time>
   <time name="total">    2.41    2.41</time>
   <energy>
    <i name="e_fr_energy">   -298.07286955 </i>
    <i name="e_wo_entrp">   -298.07286955 </i>
    <i name="e_0_energy">   -298.07286955 </i>
   </energy>
  </scstep>
  <scstep>
   <time name="dav">    2.46    2.46</time>
   <time name="total">    2.46    2.47</time>
   <energy>
    <i name="e_fr_energy">   -350.93427034 </i>
    <i name="e_wo_entrp">   -350.93427034 </i>
    <i name="e_0_energy">   -350.93427034 </i>
   </energy>
  </scstep>
  <scstep>
   <time name="dav">    2.45    2.45</time>
   <time name="total">    2.45    2.53</time>
   <energy>
    <i name="e_fr_energy">   -352.26609657 </i>
    <i name="e_wo_entrp">   -352.26609657 </i>
    <i name="e_0_energy">   -352.26609657 </i>
   </energy>
  </scstep>
  <scstep>
   <time name="dav">    2.48    2.48</time>
   <time name="total">    2.66    2.67</time>
   <energy>
    <i name="e_fr_energy">   -352.31323233 </i>
    <i name="e_wo_entrp">   -352.31323233 </i>
    <i name="e_0_energy">   -352.31323233 </i>
   </energy>
  </scstep>
  <scstep>
   <time name="dav">    2.37    2.37</time>
   <time name="total">    2.73    2.75</time>
   <energy>
    <i name="e_fr_energy">   -348.58428772 </i>
    <i name="e_wo_entrp">   -348.58428772 </i>
    <i name="e_0_energy">   -348.58428772 </i>
   </energy>
  </scstep>
  <scstep>
   <time name="dav">    2.34    2.34</time>
   <time name="total">    2.70    2.72</time>
   <energy>
    <i name="e_fr_energy">   -346.87157233 </i>
    <i name="e_wo_entrp">   -346.87157233 </i>
    <i name="e_0_energy">   -346.87157233 </i>
   </energy>
  </scstep>
  <scstep>
   <time name="dav">    2.37    2.37</time>
   <time name="total">    2.73    2.74</time>
   <energy>
    <i name="e_fr_energy">   -346.89780614 </i>
    <i name="e_wo_entrp">   -346.89780614 </i>
    <i name="e_0_energy">   -346.89780614 </i>
   </energy>
  </scstep>
  <scstep>
   <time name="dav">    2.50    2.50</time>
   <time name="total">    2.86    2.87</time>
   <energy>
    <i name="e_fr_energy">   -346.90448499 </i>
    <i name="e_wo_entrp">   -346.90448499 </i>
    <i name="e_0_energy">   -346.90448499 </i>
   </energy>
  </scstep>
  <scstep>
   <time name="dav">    2.29    2.30</time>
   <time name="total">    2.66    2.68</time>
   <energy>
    <i name="e_fr_energy">   -346.90653262 </i>
    <i name="e_wo_entrp">   -346.90653262 </i>
    <i name="e_0_energy">   -346.90653262 </i>
   </energy>
  </scstep>
  <scstep>
   <time name="dav">    2.41    2.42</time>
   <time name="total">    2.78    2.79</time>
   <energy>
    <i name="e_fr_energy">   -346.90650988 </i>
    <i name="e_wo_entrp">   -346.90650988 </i>
    <i name="e_0_energy">   -346.90650988 </i>
   </energy>
  </scstep>
  <scstep>
   <time name="dav">    2.48    2.48</time>
   <time name="total">    2.84    2.85</time>
   <energy>
    <i name="e_fr_energy">   -346.90652492 </i>
    <i name="e_wo_entrp">   -346.90652492 </i>
    <i name="e_0_energy">   -346.90652492 </i>
   </energy>
  </scstep>
  <scstep>
   <time name="dav">    2.39    2.39</time>
   <time name="total">    2.76    2.76</time>
   <energy>
    <i name="e_fr_energy">   -346.90652520 </i>
    <i name="e_wo_entrp">   -346.90652520 </i>
    <i name="e_0_energy">   -346.90652520 </i>
   </energy>
  </scstep>
  <scstep>
   <time name="dav">    2.43    2.43</time>
   <time name="total">    2.80    2.80</time>
   <energy>
    <i name="e_fr_energy">   -346.90652571 </i>
    <i name="e_wo_entrp">   -346.90652571 </i>
    <i name="e_0_energy">   -346.90652571 </i>
   </energy>
  </scstep>
  <scstep>
   <time name="dav">    2.04    2.04</time>
   <time name="total">    2.41    2.41</time>
   <energy>
    <i name="e_fr_energy">   -346.90652547 </i>
    <i name="e_wo_entrp">   -346.90652547 </i>
    <i name="e_0_energy">   -346.90652547 </i>
   </energy>
  </scstep>
  <scstep>
   <time name="dav">    1.69    1.69</time>
   <time name="total">    2.06    2.06</time>
   <energy>
    <i name="e_fr_energy">   -346.90652555 </i>
    <i name="e_wo_entrp">   -346.90652555 </i>
    <i name="e_0_energy">   -346.90652555 </i>
   </energy>
  </scstep>
  <scstep>
   <time name="dav">    1.64    1.64</time>
   <time name="total">    2.00    2.05</time>
   <energy>
    <i name="e_fr_energy">   -346.90652553 </i>
    <i name="e_wo_entrp">   -346.90652553 </i>
    <i name="e_0_energy">   -346.90652553 </i>
   </energy>
  </scstep>
  <scstep>
   <time name="dav">    1.64    1.64</time>
   <time name="total">    2.00    2.01</time>
   <energy>
    <i name="e_fr_energy">   -346.90652554 </i>
    <i name="e_wo_entrp">   -346.90652554 </i>
    <i name="e_0_energy">   -346.90652554 </i>
   </energy>
  </scstep>
  <scstep>
   <time name="dav">    1.64    1.64</time>
   <time name="total">    1.81    1.82</time>
   <energy>
    <i name="alphaZ">    105.52440745 </i>
    <i name="ewald">  -7265.46798977 </i>
    <i name="hartreedc">   -485.14587077 </i>
    <i name="XCdc">   -577.61231373 </i>
    <i name="pawpsdc">  27883.45425292 </i>
    <i name="pawaedc"> -26764.17217783 </i>
    <i name="eentropy">      0.00000000 </i>
    <i name="bandstr">    160.36321828 </i>
    <i name="atom">   6596.14994790 </i>
    <i name="e_fr_energy">   -346.90652555 </i>
    <i name="e_wo_entrp">   -346.90652555 </i>
    <i name="e_0_energy">   -346.90652555 </i>
   </energy>
  </scstep>
  <structure>
   <crystal>
    <varray name="basis" >
     <v>      10.93252578       0.00000000       0.00000000 </v>
     <v>       0.00000000      10.93252578       0.00000000 </v>
     <v>       0.00000000       0.00000000      10.93252578 </v>
    </varray>
    <i name="volume">   1306.65679237 </i>
    <varray name="rec_basis" >
     <v>       0.09147017       0.00000000       0.00000000 </v>
     <v>       0.00000000       0.09147017       0.00000000 </v>
     <v>       0.00000000       0.00000000       0.09147017 </v>
    </varray>
   </crystal>
   <varray name="positions" >
    <v>       0.44024411       0.43750000       0.43750000 </v>
    <v>       0.93750000       0.43750000       0.43750000 </v>
    <v>       0.43750000       0.93750000       0.43750000 </v>
    <v>       0.93750000       0.93750000       0.43750000 </v>
    <v>       0.43750000       0.43750000       0.93750000 </v>
    <v>       0.93750000       0.43750000       0.93750000 </v>
    <v>       0.43750000       0.93750000       0.93750000 </v>
    <v>       0.93750000       0.93750000       0.93750000 </v>
    <v>       0.44024411       0.18750000       0.18750000 </v>
    <v>       0.93750000       0.18750000       0.18750000 </v>
    <v>       0.43750000       0.68750000       0.18750000 </v>
    <v>       0.93750000       0.68750000       0.18750000 </v>
    <v>       0.43750000       0.18750000       0.68750000 </v>
    <v>       0.93750000       0.18750000       0.68750000 </v>
    <v>       0.43750000       0.68750000       0.68750000 </v>
    <v>       0.93750000       0.68750000       0.68750000 </v>
    <v>       0.18750000       0.43750000       0.18750000 </v>
    <v>       0.68750000       0.43750000       0.18750000 </v>
    <v>       0.18750000       0.93750000       0.18750000 </v>
    <v>       0.68750000       0.93750000       0.18750000 </v>
    <v>       0.18750000       0.43750000       0.68750000 </v>
    <v>       0.68750000       0.43750000       0.68750000 </v>
    <v>       0.18750000       0.93750000       0.68750000 </v>
    <v>       0.68750000       0.93750000       0.68750000 </v>
    <v>       0.18750000       0.18750000       0.43750000 </v>
    <v>       0.68750000       0.18750000       0.43750000 </v>
    <v>       0.18750000       0.68750000       0.43750000 </v>
    <v>       0.68750000       0.68750000       0.43750000 </v>
    <v>       0.18750000       0.18750000       0.93750000 </v>
    <v>       0.68750000       0.18750000       0.93750000 </v>
    <v>       0.18750000       0.68750000       0.93750000 </v>
    <v>       0.68750000       0.68750000       0.93750000 </v>
    <v>       0.06250000       0.06250000       0.06250000 </v>
    <v>       0.56250000       0.06250000       0.06250000 </v>
    <v>       0.06250000       0.56250000       0.06250000 </v>
    <v>       0.56250000       0.56250000       0.06250000 </v>
    <v>       0.06250000       0.06250000       0.56250000 </v>
    <v>       0.56250000       0.06250000       0.56250000 </v>
    <v>       0.06250000       0.56250000       0.56250000 </v>
    <v>       0.56250000       0.56250000       0.56250000 </v>
    <v>       0.06250000       0.31250000       0.31250000 </v>
    <v>       0.56250000       0.31250000       0.31250000 </v>
    <v>       0.06250000       0.81250000       0.31250000 </v>
    <v>       0.56250000       0.81250000       0.31250000 </v>
    <v>       0.06250000       0.31250000       0.81250000 </v>
    <v>       0.56250000       0.31250000       0.81250000 </v>
    <v>       0.06250000       0.81250000       0.81250000 </v>
    <v>       0.56250000       0.81250000       0.81250000 </v>
    <v>       0.31250000       0.06250000       0.31250000 </v>
    <v>       0.81250000       0.06250000       0.31250000 </v>
    <v>       0.31250000       0.56250000       0.31250000 </v>
    <v>       0.81250000       0.56250000       0.31250000 </v>
    <v>       0.31250000       0.06250000       0.81250000 </v>
    <v>       0.81250000       0.06250000       0.81250000 </v>
    <v>       0.31250000       0.56250000       0.81250000 </v>
    <v>       0.81250000       0.56250000       0.81250000 </v>
    <v>       0.31250000       0.31250000       0.06250000 </v>
    <v>       0.81250000       0.31250000       0.06250000 </v>
    <v>       0.31250000       0.81250000       0.06250000 </v>
    <v>       0.81250000       0.81250000       0.06250000 </v>
    <v>       0.31250000       0.31250000       0.56250000 </v>
    <v>       0.81250000       0.31250000       0.56250000 </v>
    <v>       0.31250000       0.81250000       0.56250000 </v>
    <v>       0.81250000       0.81250000       0.56250000 </v>
   </varray>
  </structure>
  <varray name="forces" >
   <v>      -0.40011517      -0.00277734      -0.00277734 </v>
   <v>       0.00052623      -0.00022610      -0.00022610 </v>
   <v>      -0.01145769      -0.00265882       0.00266302 </v>
   <v>      -0.00018083      -0.00023561       0.00023158 </v>
   <v>      -0.01145769       0.00266302      -0.00265882 </v>
   <v>      -0.00018083       0.00023158      -0.00023561 </v>
   <v>      -0.02442948       0.00276917       0.00276917 </v>
   <v>       0.00055551       0.00022655       0.00022655 </v>
   <v>      -0.40011517       0.00277734       0.00277734 </v>
   <v>       0.00052623       0.00022610       0.00022610 </v>
   <v>      -0.01145769       0.00265882      -0.00266302 </v>
   <v>      -0.00018083       0.00023561      -0.00023158 </v>
   <v>      -0.01145769      -0.00266302       0.00265882 </v>
   <v>      -0.00018083      -0.00023158       0.00023561 </v>
   <v>      -0.02442948      -0.00276917      -0.00276917 </v>
   <v>       0.00055551      -0.00022655      -0.00022655 </v>
   <v>       0.01128969      -0.00823610       0.00823610 </v>
   <v>       0.01162743       0.00294215      -0.00294215 </v>
   <v>       0.00665794       0.00532313      -0.00451717 </v>
   <v>       0.00682020      -0.00592033      -0.00092344 </v>
   <v>       0.00665794       0.00451717      -0.00532313 </v>
   <v>       0.00682020       0.00092344       0.00592033 </v>
   <v>       0.00203678      -0.00163645       0.00163645 </v>
   <v>       0.00204549       0.00207428      -0.00207428 </v>
   <v>       0.01128969       0.00823610      -0.00823610 </v>
   <v>       0.01162743      -0.00294215       0.00294215 </v>
   <v>       0.00665794      -0.00532313       0.00451717 </v>
   <v>       0.00682020       0.00592033       0.00092344 </v>
   <v>       0.00665794      -0.00451717       0.00532313 </v>
   <v>       0.00682020      -0.00092344      -0.00592033 </v>
   <v>       0.00203678       0.00163645      -0.00163645 </v>
   <v>       0.00204549      -0.00207428       0.00207428 </v>
   <v>      -0.00080759      -0.00015565      -0.00015565 </v>
   <v>       0.10204947      -0.06541039      -0.06541039 </v>
   <v>       0.00123451       0.00004983      -0.00004983 </v>
   <v>      -0.00296132       0.00028767      -0.00028767 </v>
   <v>       0.00123451      -0.00004983       0.00004983 </v>
   <v>      -0.00296132      -0.00028767       0.00028767 </v>
   <v>      -0.00080759       0.00015565       0.00015565 </v>
   <v>       0.10204947       0.06541039       0.06541039 </v>
   <v>      -0.00054759       0.00000000       0.00000000 </v>
   <v>       0.19171071       0.00000000       0.00000000 </v>
   <v>       0.00123660       0.00000000       0.00000000 </v>
   <v>      -0.00295240       0.00000000       0.00000000 </v>
   <v>       0.00123660       0.00000000       0.00000000 </v>
   <v>      -0.00295240       0.00000000       0.00000000 </v>
   <v>      -0.00107022       0.00000000       0.00000000 </v>
   <v>       0.01242531       0.00000000       0.00000000 </v>
   <v>       0.09164699       0.06006375      -0.05974063 </v>
   <v>       0.00038847       0.00026716      -0.00020276 </v>
   <v>       0.09164699      -0.06006375       0.05974063 </v>
   <v>       0.00038847      -0.00026716       0.00020276 </v>
   <v>       0.00470388       0.00057676      -0.00020856 </v>
   <v>       0.00012361      -0.00003976       0.00010741 </v>
   <v>       0.00470388      -0.00057676       0.00020856 </v>
   <v>       0.00012361       0.00003976      -0.00010741 </v>
   <v>       0.09164699      -0.05974063       0.06006375 </v>
   <v>       0.00038847      -0.00020276       0.00026716 </v>
   <v>       0.00470388      -0.00020856       0.00057676 </v>
   <v>       0.00012361       0.00010741      -0.00003976 </v>
   <v>       0.09164699       0.05974063      -0.06006375 </v>
   <v>       0.00038847       0.00020276      -0.00026716 </v>
   <v>       0.00470388       0.00020856      -0.00057676 </v>
   <v>       0.00012361      -0.00010741       0.00003976 </v>
  </varray>
  <varray name="stress" >
   <v>      -0.01807967       0.00000000       0.00000000 </v>
   <v>       0.00000000       0.02096332       0.67003494 </v>
   <v>       0.00000000       0.67003494       0.02096332 </v>
  </varray>
  <energy>
   <i name="e_fr_energy">   -346.90652555 </i>
   <i name="e_wo_entrp">   -346.90652555 </i>
   <i name="e_0_energy">      0.00000000 </i>
  </energy>
  <time name="totalsc">   53.74   54.05</time>
  <eigenvalues>
   <array>
    <dimension dim="1">band</dimension>
    <dimension dim="2">kpoint</dimension>
    <dimension dim="3">spin</dimension>
    <field>eigene</field>
    <field>occ</field>
    <set>
     <set comment="spin 1">
      <set comment="kpoint 1">
       <r>   -5.9931    1.0000 </r>
       <r>   -5.4690    1.0000 </r>
       <r>   -5.4632    1.0000 </r>
       <r>   -5.4625    1.0000 </r>
       <r>   -4.9696    1.0000 </r>
       <r>   -4.9638    1.0000 </r>
       <r>   -4.9631    1.0000 </r>
       <r>   -4.5312    1.0000 </r>
       <r>   -4.4362    1.0000 </r>
       <r>   -4.4308    1.0000 </r>
       <r>   -4.4296    1.0000 </r>
       <r>   -4.0258    1.0000 </r>
       <r>   -4.0180    1.0000 </r>
       <r>   -4.0158    1.0000 </r>
       <r>   -4.0146    1.0000 </r>
       <r>   -4.0146    1.0000 </r>
       <r>   -4.0128    1.0000 </r>
       <r>   -3.8307    1.0000 </r>
       <r>   -3.8225    1.0000 </r>
       <r>   -3.8215    1.0000 </r>
       <r>   -3.3305    1.0000 </r>
       <r>   -3.3264    1.0000 </r>
       <r>   -3.3228    1.0000 </r>
       <r>   -2.9639    1.0000 </r>
       <r>   -2.9583    1.0000 </r>
       <r>   -2.9565    1.0000 </r>
       <r>   -2.8015    1.0000 </r>
       <r>   -2.7916    1.0000 </r>
       <r>   -2.7903    1.0000 </r>
       <r>   -2.7888    1.0000 </r>
       <r>   -2.7880    1.0000 </r>
       <r>   -2.7863    1.0000 </r>
       <r>   -1.2611    1.0000 </r>
       <r>   -1.2493    1.0000 </r>
       <r>   -1.2482    1.0000 </r>
       <r>   -1.2462    1.0000 </r>
       <r>   -1.2435    1.0000 </r>
       <r>   -1.2422    1.0000 </r>
       <r>   -1.1518    1.0000 </r>
       <r>   -1.1513    1.0000 </r>
       <r>   -1.1472    1.0000 </r>
       <r>   -1.0369    1.0000 </r>
       <r>   -1.0312    1.0000 </r>
       <r>   -1.0255    1.0000 </r>
       <r>   -0.9586    1.0000 </r>
       <r>   -0.9489    1.0000 </r>
       <r>   -0.9447    1.0000 </r>
       <r>   -0.2480    1.0000 </r>
       <r>   -0.1687    1.0000 </r>
       <r>   -0.1606    1.0000 </r>
       <r>   -0.1600    1.0000 </r>
       <r>   -0.1576    1.0000 </r>
       <r>   -0.1537    1.0000 </r>
       <r>   -0.1516    1.0000 </r>
       <r>    0.7043    1.0000 </r>
       <r>    0.7142    1.0000 </r>
       <r>    0.7175    1.0000 </r>
       <r>    1.0419    1.0000 </r>
       <r>    1.0489    1.0000 </r>
       <r>    1.0506    1.0000 </r>
       <r>    1.6510    1.0000 </r>
       <r>    1.6555    1.0000 </r>
       <r>    1.6575    1.0000 </r>
       <r>    1.6578    1.0000 </r>
       <r>    1.6586    1.0000 </r>
       <r>    1.6619    1.0000 </r>
       <r>    1.7142    1.0000 </r>
       <r>    1.7182    1.0000 </r>
       <r>    1.7192    1.0000 </r>
       <r>    2.2641    1.0000 </r>
       <r>    2.2658    1.0000 </r>
       <r>    2.2676    1.0000 </r>
       <r>    2.3680    1.0000 </r>
       <r>    2.3686    1.0000 </r>
       <r>    2.3715    1.0000 </r>
       <r>    2.3728    1.0000 </r>
       <r>    2.3749    1.0000 </r>
       <r>    2.3768    1.0000 </r>
       <r>    2.4224    1.0000 </r>
       <r>    2.4277    1.0000 </r>
       <r>    2.4311    1.0000 </r>
       <r>    2.7261    1.0000 </r>
       <r>    2.7343    1.0000 </r>
       <r>    2.7352    1.0000 </r>
       <r>    2.7361    1.0000 </r>
       <r>    2.7369    1.0000 </r>
       <r>    2.7399    1.0000 </r>
       <r>    2.9982    1.0000 </r>
       <r>    3.0009    1.0000 </r>
       <r>    3.0022    1.0000 </r>
       <r>    3.0092    1.0000 </r>
       <r>    3.0171    1.0000 </r>
       <r>    3.0177    1.0000 </r>
       <r>    3.3548    1.0000 </r>
       <r>    3.3617    1.0000 </r>
       <r>    3.3634    1.0000 </r>
       <r>    3.3768    1.0000 </r>
       <r>    3.3826    1.0000 </r>
       <r>    3.3851    1.0000 </r>
       <r>    3.4643    1.0000 </r>
       <r>    3.4676    1.0000 </r>
       <r>    3.4714    1.0000 </r>
       <r>    3.7275    1.0000 </r>
       <r>    3.7371    1.0000 </r>
       <r>    3.7395    1.0000 </r>
       <r>    3.7415    1.0000 </r>
       <r>    3.7424    1.0000 </r>
       <r>    3.7438    1.0000 </r>
       <r>    3.7784    1.0000 </r>
       <r>    3.7816    1.0000 </r>
       <r>    3.7859    1.0000 </r>
       <r>    4.0366    1.0000 </r>
       <r>    4.0980    1.0000 </r>
       <r>    4.1001    1.0000 </r>
       <r>    4.1027    1.0000 </r>
       <r>    4.3388    1.0000 </r>
       <r>    4.3423    1.0000 </r>
       <r>    4.3474    1.0000 </r>
       <r>    4.3952    1.0000 </r>
       <r>    4.4036    1.0000 </r>
       <r>    4.4057    1.0000 </r>
       <r>    4.5594    1.0000 </r>
       <r>    4.5687    1.0000 </r>
       <r>    4.8681    1.0000 </r>
       <r>    4.8715    1.0000 </r>
       <r>    4.8786    1.0000 </r>
       <r>    5.3466    1.0000 </r>
       <r>    5.3573    1.0000 </r>
       <r>    6.5599    0.0000 </r>
       <r>    6.5673    0.0000 </r>
       <r>    6.5678    0.0000 </r>
       <r>    6.9994    0.0000 </r>
       <r>    7.0054    0.0000 </r>
       <r>    7.0107    0.0000 </r>
       <r>    7.2351    0.0000 </r>
       <r>    7.4870    0.0000 </r>
       <r>    7.4928    0.0000 </r>
       <r>    7.4970    0.0000 </r>
       <r>    7.6153    0.0000 </r>
       <r>    7.6158    0.0000 </r>
       <r>    7.6235    0.0000 </r>
       <r>    7.7771    0.0000 </r>
       <r>    7.7794    0.0000 </r>
       <r>    7.7842    0.0000 </r>
       <r>    7.7980    0.0000 </r>
       <r>    7.8032    0.0000 </r>
       <r>    7.8046    0.0000 </r>
       <r>    8.0196    0.0000 </r>
       <r>    8.0250    0.0000 </r>
       <r>    8.0297    0.0000 </r>
       <r>    8.0309    0.0000 </r>
       <r>    8.0317    0.0000 </r>
       <r>    8.0355    0.0000 </r>
       <r>    8.0834    0.0000 </r>
       <r>    8.2919    0.0000 </r>
       <r>    8.2948    0.0000 </r>
       <r>    8.2989    0.0000 </r>
       <r>    8.4914    0.0000 </r>
       <r>    8.5012    0.0000 </r>
       <r>    8.5023    0.0000 </r>
       <r>    8.5041    0.0000 </r>
       <r>    8.5077    0.0000 </r>
       <r>    8.5203    0.0000 </r>
       <r>    8.5479    0.0000 </r>
      </set>
      <set comment="kpoint 2">
       <r>   -5.9933    1.0000 </r>
       <r>   -5.4678    1.0000 </r>
       <r>   -5.4646    1.0000 </r>
       <r>   -5.4617    1.0000 </r>
       <r>   -4.9687    1.0000 </r>
       <r>   -4.9652    1.0000 </r>
       <r>   -4.9628    1.0000 </r>
       <r>   -4.5334    1.0000 </r>
       <r>   -4.4357    1.0000 </r>
       <r>   -4.4329    1.0000 </r>
       <r>   -4.4295    1.0000 </r>
       <r>   -4.0219    1.0000 </r>
       <r>   -4.0213    1.0000 </r>
       <r>   -4.0181    1.0000 </r>
       <r>   -4.0162    1.0000 </r>
       <r>   -4.0118    1.0000 </r>
       <r>   -4.0069    1.0000 </r>
       <r>   -3.8271    1.0000 </r>
       <r>   -3.8262    1.0000 </r>
       <r>   -3.8175    1.0000 </r>
       <r>   -3.3341    1.0000 </r>
       <r>   -3.3296    1.0000 </r>
       <r>   -3.3266    1.0000 </r>
       <r>   -2.9619    1.0000 </r>
       <r>   -2.9595    1.0000 </r>
       <r>   -2.9552    1.0000 </r>
       <r>   -2.7962    1.0000 </r>
       <r>   -2.7957    1.0000 </r>
       <r>   -2.7926    1.0000 </r>
       <r>   -2.7905    1.0000 </r>
       <r>   -2.7869    1.0000 </r>
       <r>   -2.7812    1.0000 </r>
       <r>   -1.2556    1.0000 </r>
       <r>   -1.2543    1.0000 </r>
       <r>   -1.2505    1.0000 </r>
       <r>   -1.2486    1.0000 </r>
       <r>   -1.2443    1.0000 </r>
       <r>   -1.2430    1.0000 </r>
       <r>   -1.1546    1.0000 </r>
       <r>   -1.1513    1.0000 </r>
       <r>   -1.1501    1.0000 </r>
       <r>   -1.0393    1.0000 </r>
       <r>   -1.0345    1.0000 </r>
       <r>   -1.0287    1.0000 </r>
       <r>   -0.9472    1.0000 </r>
       <r>   -0.9434    1.0000 </r>
       <r>   -0.9374    1.0000 </r>
       <r>   -0.2410    1.0000 </r>
       <r>   -0.1688    1.0000 </r>
       <r>   -0.1658    1.0000 </r>
       <r>   -0.1621    1.0000 </r>
       <r>   -0.1605    1.0000 </r>
       <r>   -0.1564    1.0000 </r>
       <r>   -0.1556    1.0000 </r>
       <r>    0.7138    1.0000 </r>
       <r>    0.7173    1.0000 </r>
       <r>    0.7186    1.0000 </r>
       <r>    1.0443    1.0000 </r>
       <r>    1.0446    1.0000 </r>
       <r>    1.0522    1.0000 </r>
       <r>    1.6524    1.0000 </r>
       <r>    1.6531    1.0000 </r>
       <r>    1.6572    1.0000 </r>
       <r>    1.6573    1.0000 </r>
       <r>    1.6583    1.0000 </r>
       <r>    1.6623    1.0000 </r>
       <r>    1.7128    1.0000 </r>
       <r>    1.7140    1.0000 </r>
       <r>    1.7185    1.0000 </r>
       <r>    2.2680    1.0000 </r>
       <r>    2.2697    1.0000 </r>
       <r>    2.2709    1.0000 </r>
       <r>    2.3625    1.0000 </r>
       <r>    2.3637    1.0000 </r>
       <r>    2.3698    1.0000 </r>
       <r>    2.3719    1.0000 </r>
       <r>    2.3742    1.0000 </r>
       <r>    2.3748    1.0000 </r>
       <r>    2.4208    1.0000 </r>
       <r>    2.4215    1.0000 </r>
       <r>    2.4271    1.0000 </r>
       <r>    2.7296    1.0000 </r>
       <r>    2.7327    1.0000 </r>
       <r>    2.7345    1.0000 </r>
       <r>    2.7354    1.0000 </r>
       <r>    2.7387    1.0000 </r>
       <r>    2.7397    1.0000 </r>
       <r>    2.9953    1.0000 </r>
       <r>    2.9979    1.0000 </r>
       <r>    3.0008    1.0000 </r>
       <r>    3.0097    1.0000 </r>
       <r>    3.0106    1.0000 </r>
       <r>    3.0171    1.0000 </r>
       <r>    3.3615    1.0000 </r>
       <r>    3.3642    1.0000 </r>
       <r>    3.3651    1.0000 </r>
       <r>    3.3834    1.0000 </r>
       <r>    3.3877    1.0000 </r>
       <r>    3.3915    1.0000 </r>
       <r>    3.4619    1.0000 </r>
       <r>    3.4669    1.0000 </r>
       <r>    3.4676    1.0000 </r>
       <r>    3.7395    1.0000 </r>
       <r>    3.7404    1.0000 </r>
       <r>    3.7415    1.0000 </r>
       <r>    3.7429    1.0000 </r>
       <r>    3.7445    1.0000 </r>
       <r>    3.7539    1.0000 </r>
       <r>    3.7756    1.0000 </r>
       <r>    3.7811    1.0000 </r>
       <r>    3.7823    1.0000 </r>
       <r>    4.0444    1.0000 </r>
       <r>    4.0926    1.0000 </r>
       <r>    4.0957    1.0000 </r>
       <r>    4.0988    1.0000 </r>
       <r>    4.3353    1.0000 </r>
       <r>    4.3406    1.0000 </r>
       <r>    4.3415    1.0000 </r>
       <r>    4.4064    1.0000 </r>
       <r>    4.4110    1.0000 </r>
       <r>    4.4139    1.0000 </r>
       <r>    4.5570    1.0000 </r>
       <r>    4.5665    1.0000 </r>
       <r>    4.8625    1.0000 </r>
       <r>    4.8694    1.0000 </r>
       <r>    4.8706    1.0000 </r>
       <r>    5.3424    1.0000 </r>
       <r>    5.3527    1.0000 </r>
       <r>    6.5589    0.0000 </r>
       <r>    6.5593    0.0000 </r>
       <r>    6.5669    0.0000 </r>
       <r>    6.9999    0.0000 </r>
       <r>    7.0048    0.0000 </r>
       <r>    7.0063    0.0000 </r>
       <r>    7.2323    0.0000 </r>
       <r>    7.4850    0.0000 </r>
       <r>    7.4908    0.0000 </r>
       <r>    7.4916    0.0000 </r>
       <r>    7.6156    0.0000 </r>
       <r>    7.6235    0.0000 </r>
       <r>    7.6236    0.0000 </r>
       <r>    7.7760    0.0000 </r>
       <r>    7.7799    0.0000 </r>
       <r>    7.7819    0.0000 </r>
       <r>    7.7987    0.0000 </r>
       <r>    7.7991    0.0000 </r>
       <r>    7.8042    0.0000 </r>
       <r>    8.0258    0.0000 </r>
       <r>    8.0291    0.0000 </r>
       <r>    8.0319    0.0000 </r>
       <r>    8.0346    0.0000 </r>
       <r>    8.0359    0.0000 </r>
       <r>    8.0359    0.0000 </r>
       <r>    8.0791    0.0000 </r>
       <r>    8.2915    0.0000 </r>
       <r>    8.2959    0.0000 </r>
       <r>    8.2969    0.0000 </r>
       <r>    8.4941    0.0000 </r>
       <r>    8.5004    0.0000 </r>
       <r>    8.5027    0.0000 </r>
       <r>    8.5069    0.0000 </r>
       <r>    8.5155    0.0000 </r>
       <r>    8.5357    0.0000 </r>
       <r>    8.5426    0.0000 </r>
      </set>
     </set>
    </set>
   </array>
  </eigenvalues>
  <separator name="orbital magnetization" >
   <v name="MAGDIPOLOUT">      0.00000000      0.00000000      0.00000000</v>
  </separator>
  <dos>
   <i name="efermi">      5.59933738 </i>
   <total>
    <array>
     <dimension dim="1">gridpoints</dimension>
     <dimension dim="2">spin</dimension>
     <field>energy</field>
     <field>total</field>
     <field>integrated</field>
     <set>
      <set comment="spin 1">
       <r>    -6.7203     0.0000     0.0000 </r>
       <r>    -6.6670     0.0000     0.0000 </r>
       <r>    -6.6137     0.0000     0.0000 </r>
       <r>    -6.5604     0.0000     0.0000 </r>
       <r>    -6.5070     0.0000     0.0000 </r>
       <r>    -6.4537     0.0000     0.0000 </r>
       <r>    -6.4004     0.0000     0.0000 </r>
       <r>    -6.3471     0.0000     0.0000 </r>
       <r>    -6.2938     0.0000     0.0000 </r>
       <r>    -6.2405     0.0000     0.0000 </r>
       <r>    -6.1871     0.0000     0.0000 </r>
       <r>    -6.1338     0.0013     0.0001 </r>
       <r>    -6.0805     0.2524     0.0135 </r>
       <r>    -6.0272     6.0536     0.3363 </r>
       <r>    -5.9739    20.2373     1.4153 </r>
       <r>    -5.9206    10.2178     1.9601 </r>
       <r>    -5.8672     0.7419     1.9996 </r>
       <r>    -5.8139     0.0069     2.0000 </r>
       <r>    -5.7606     0.0000     2.0000 </r>
       <r>    -5.7073     0.0000     2.0000 </r>
       <r>    -5.6540     0.0000     2.0000 </r>
       <r>    -5.6006     0.0072     2.0004 </r>
       <r>    -5.5473     1.1141     2.0598 </r>
       <r>    -5.4940    21.9363     3.2294 </r>
       <r>    -5.4407    61.5146     6.5092 </r>
       <r>    -5.3874    26.3279     7.9129 </r>
       <r>    -5.3341     1.6207     7.9993 </r>
       <r>    -5.2807     0.0128     8.0000 </r>
       <r>    -5.2274     0.0000     8.0000 </r>
       <r>    -5.1741     0.0000     8.0000 </r>
       <r>    -5.1208     0.0007     8.0000 </r>
       <r>    -5.0675     0.2267     8.0121 </r>
       <r>    -5.0142     9.3526     8.5108 </r>
       <r>    -4.9608    52.6083    11.3157 </r>
       <r>    -4.9075    44.6163    13.6945 </r>
       <r>    -4.8542     5.6340    13.9949 </r>
       <r>    -4.8009     0.0948    14.0000 </r>
       <r>    -4.7476     0.0002    14.0000 </r>
       <r>    -4.6943     0.0001    14.0000 </r>
       <r>    -4.6409     0.0398    14.0021 </r>
       <r>    -4.5876     2.1672    14.1177 </r>
       <r>    -4.5343    15.9185    14.9664 </r>
       <r>    -4.4810    26.2556    16.3663 </r>
       <r>    -4.4277    55.3798    19.3190 </r>
       <r>    -4.3743    44.5844    21.6961 </r>
       <r>    -4.3210     5.6053    21.9950 </r>
       <r>    -4.2677     0.0941    22.0000 </r>
       <r>    -4.2144     0.0002    22.0000 </r>
       <r>    -4.1611     0.0057    22.0003 </r>
       <r>    -4.1078     1.1781    22.0631 </r>
       <r>    -4.0544    31.1453    23.7237 </r>
       <r>    -4.0011   117.6638    29.9972 </r>
       <r>    -3.9478    68.9922    33.6757 </r>
       <r>    -3.8945     8.7451    34.1420 </r>
       <r>    -3.8412    33.0572    35.9045 </r>
       <r>    -3.7879    59.5562    39.0799 </r>
       <r>    -3.7345    16.5955    39.9647 </r>
       <r>    -3.6812     0.6584    39.9998 </r>
       <r>    -3.6279     0.0033    40.0000 </r>
       <r>    -3.5746     0.0000    40.0000 </r>
       <r>    -3.5213     0.0000    40.0000 </r>
       <r>    -3.4680     0.0048    40.0003 </r>
       <r>    -3.4146     0.8481    40.0455 </r>
       <r>    -3.3613    19.0252    41.0598 </r>
       <r>    -3.3080    60.7379    44.2982 </r>
       <r>    -3.2547    29.7674    45.8854 </r>
       <r>    -3.2014     2.1304    45.9989 </r>
       <r>    -3.1480     0.0198    46.0000 </r>
       <r>    -3.0947     0.0075    46.0004 </r>
       <r>    -3.0414     1.1474    46.0616 </r>
       <r>    -2.9881    22.2330    47.2470 </r>
       <r>    -2.9348    61.5250    50.5273 </r>
       <r>    -2.8815    27.2790    51.9818 </r>
       <r>    -2.8281    33.6210    53.7744 </r>
       <r>    -2.7748   118.1018    60.0712 </r>
       <r>    -2.7215    67.7949    63.6859 </r>
       <r>    -2.6682     5.8244    63.9964 </r>
       <r>    -2.6149     0.0669    64.0000 </r>
       <r>    -2.5616     0.0001    64.0000 </r>
       <r>    -2.5082     0.0000    64.0000 </r>
       <r>    -2.4549     0.0000    64.0000 </r>
       <r>    -2.4016     0.0000    64.0000 </r>
       <r>    -2.3483     0.0000    64.0000 </r>
       <r>    -2.2950     0.0000    64.0000 </r>
       <r>    -2.2417     0.0000    64.0000 </r>
       <r>    -2.1883     0.0000    64.0000 </r>
       <r>    -2.1350     0.0000    64.0000 </r>
       <r>    -2.0817     0.0000    64.0000 </r>
       <r>    -2.0284     0.0000    64.0000 </r>
       <r>    -1.9751     0.0000    64.0000 </r>
       <r>    -1.9217     0.0000    64.0000 </r>
       <r>    -1.8684     0.0000    64.0000 </r>
       <r>    -1.8151     0.0000    64.0000 </r>
       <r>    -1.7618     0.0000    64.0000 </r>
       <r>    -1.7085     0.0000    64.0000 </r>
       <r>    -1.6552     0.0000    64.0000 </r>
       <r>    -1.6018     0.0000    64.0000 </r>
       <r>    -1.5485     0.0000    64.0000 </r>
       <r>    -1.4952     0.0000    64.0000 </r>
       <r>    -1.4419     0.0000    64.0000 </r>
       <r>    -1.3886     0.0109    64.0006 </r>
       <r>    -1.3353     1.7760    64.0953 </r>
       <r>    -1.2819    38.2407    66.1342 </r>
       <r>    -1.2286   122.3436    72.6572 </r>
       <r>    -1.1753    86.0253    77.2439 </r>
       <r>    -1.1220    66.6854    80.7993 </r>
       <r>    -1.0687    39.0461    82.8812 </r>
       <r>    -1.0154    63.8839    86.2873 </r>
       <r>    -0.9620    67.1037    89.8651 </r>
       <r>    -0.9087    61.1793    93.1270 </r>
       <r>    -0.8554    15.7556    93.9671 </r>
       <r>    -0.8021     0.6144    93.9998 </r>
       <r>    -0.7488     0.0031    94.0000 </r>
       <r>    -0.6954     0.0000    94.0000 </r>
       <r>    -0.6421     0.0000    94.0000 </r>
       <r>    -0.5888     0.0000    94.0000 </r>
       <r>    -0.5355     0.0000    94.0000 </r>
       <r>    -0.4822     0.0000    94.0000 </r>
       <r>    -0.4289     0.0000    94.0000 </r>
       <r>    -0.3755     0.0042    94.0002 </r>
       <r>    -0.3222     0.5359    94.0288 </r>
       <r>    -0.2689     8.9657    94.5068 </r>
       <r>    -0.2156    33.8155    96.3098 </r>
       <r>    -0.1623   100.9275   101.6910 </r>
       <r>    -0.1090   101.1828   107.0858 </r>
       <r>    -0.0556    16.7577   107.9793 </r>
       <r>    -0.0023     0.3880   107.9999 </r>
       <r>     0.0510     0.0011   108.0000 </r>
       <r>     0.1043     0.0000   108.0000 </r>
       <r>     0.1576     0.0000   108.0000 </r>
       <r>     0.2109     0.0000   108.0000 </r>
       <r>     0.2643     0.0000   108.0000 </r>
       <r>     0.3176     0.0000   108.0000 </r>
       <r>     0.3709     0.0000   108.0000 </r>
       <r>     0.4242     0.0000   108.0000 </r>
       <r>     0.4775     0.0000   108.0000 </r>
       <r>     0.5309     0.0000   108.0000 </r>
       <r>     0.5842     0.0153   108.0008 </r>
       <r>     0.6375     1.7600   108.0947 </r>
       <r>     0.6908    26.9557   109.5319 </r>
       <r>     0.7441    61.1393   112.7917 </r>
       <r>     0.7974    21.5591   113.9411 </r>
       <r>     0.8508     1.0970   113.9996 </r>
       <r>     0.9041     0.0104   114.0002 </r>
       <r>     0.9574     0.6526   114.0350 </r>
       <r>     1.0107    16.5924   114.9196 </r>
       <r>     1.0640    59.6581   118.1004 </r>
       <r>     1.1173    32.9243   119.8559 </r>
       <r>     1.1707     2.6744   119.9985 </r>
       <r>     1.2240     0.0285   120.0000 </r>
       <r>     1.2773     0.0000   120.0000 </r>
       <r>     1.3306     0.0000   120.0000 </r>
       <r>     1.3839     0.0000   120.0000 </r>
       <r>     1.4372     0.0000   120.0000 </r>
       <r>     1.4906     0.0003   120.0000 </r>
       <r>     1.5439     0.1637   120.0087 </r>
       <r>     1.5972    10.3064   120.5583 </r>
       <r>     1.6505    89.5881   125.3349 </r>
       <r>     1.7038   145.0337   133.0677 </r>
       <r>     1.7572    78.0642   137.2299 </r>
       <r>     1.8105    14.0048   137.9766 </r>
       <r>     1.8638     0.4378   137.9999 </r>
       <r>     1.9171     0.0017   138.0000 </r>
       <r>     1.9704     0.0000   138.0000 </r>
       <r>     2.0237     0.0000   138.0000 </r>
       <r>     2.0771     0.0000   138.0000 </r>
       <r>     2.1304     0.0060   138.0003 </r>
       <r>     2.1837     0.9916   138.0532 </r>
       <r>     2.2370    20.7591   139.1600 </r>
       <r>     2.2903    64.0449   142.5747 </r>
       <r>     2.3436    76.3457   146.6453 </r>
       <r>     2.3970   147.5096   154.5101 </r>
       <r>     2.4503   110.6355   160.4089 </r>
       <r>     2.5036    28.2829   161.9169 </r>
       <r>     2.5569     1.5474   161.9994 </r>
       <r>     2.6102     0.0633   162.0027 </r>
       <r>     2.6635     4.9918   162.2689 </r>
       <r>     2.7169    63.7736   165.6691 </r>
       <r>     2.7702   120.0694   172.0709 </r>
       <r>     2.8235    34.7489   173.9237 </r>
       <r>     2.8768     1.4623   174.0016 </r>
       <r>     2.9301     3.9171   174.2105 </r>
       <r>     2.9835    55.3274   177.1604 </r>
       <r>     3.0368   120.6077   183.5909 </r>
       <r>     3.0901    42.8399   185.8750 </r>
       <r>     3.1434     2.3275   185.9991 </r>
       <r>     3.1967     0.0174   186.0000 </r>
       <r>     3.2500     0.1026   186.0055 </r>
       <r>     3.3034     6.8126   186.3687 </r>
       <r>     3.3567    67.5033   189.9678 </r>
       <r>     3.4100   120.3429   196.3842 </r>
       <r>     3.4633    80.6317   200.6832 </r>
       <r>     3.5166    53.2663   203.5233 </r>
       <r>     3.5699     8.7397   203.9892 </r>
       <r>     3.6233     0.3140   204.0060 </r>
       <r>     3.6766     8.0785   204.4367 </r>
       <r>     3.7299    84.9031   208.9635 </r>
       <r>     3.7832   164.1339   217.7147 </r>
       <r>     3.8365    72.9356   221.6035 </r>
       <r>     3.8898     7.3141   221.9934 </r>
       <r>     3.9432     0.2403   222.0062 </r>
       <r>     3.9965     4.1733   222.2287 </r>
       <r>     4.0498    28.1610   223.7302 </r>
       <r>     4.1031    66.3101   227.2657 </r>
       <r>     4.1564    45.6520   229.6997 </r>
       <r>     4.2098     5.5517   229.9957 </r>
       <r>     4.2631     1.6806   230.0853 </r>
       <r>     4.3164    26.6265   231.5050 </r>
       <r>     4.3697    78.2767   235.6785 </r>
       <r>     4.4230    81.6840   240.0337 </r>
       <r>     4.4763    34.6600   241.8817 </r>
       <r>     4.5297    15.3854   242.7020 </r>
       <r>     4.5830    40.3450   244.8531 </r>
       <r>     4.6363    20.0235   245.9207 </r>
       <r>     4.6896     1.4736   245.9992 </r>
       <r>     4.7429     0.0346   246.0011 </r>
       <r>     4.7962     2.1356   246.1149 </r>
       <r>     4.8496    29.5878   247.6925 </r>
       <r>     4.9029    60.6018   250.9236 </r>
       <r>     4.9562    19.2945   251.9524 </r>
       <r>     5.0095     0.8883   251.9997 </r>
       <r>     5.0628     0.0053   252.0000 </r>
       <r>     5.1161     0.0000   252.0000 </r>
       <r>     5.1695     0.0000   252.0000 </r>
       <r>     5.2228     0.0146   252.0008 </r>
       <r>     5.2761     1.4754   252.0794 </r>
       <r>     5.3294    19.9036   253.1407 </r>
       <r>     5.3827    40.2368   255.2860 </r>
       <r>     5.4361    12.7938   255.9681 </r>
       <r>     5.4894     0.5946   255.9998 </r>
       <r>     5.5427     0.0036   256.0000 </r>
       <r>     5.5960     0.0000   256.0000 </r>
       <r>     5.6493     0.0000   256.0000 </r>
       <r>     5.7026     0.0000   256.0000 </r>
       <r>     5.7560     0.0000   256.0000 </r>
       <r>     5.8093     0.0000   256.0000 </r>
       <r>     5.8626     0.0000   256.0000 </r>
       <r>     5.9159     0.0000   256.0000 </r>
       <r>     5.9692     0.0000   256.0000 </r>
       <r>     6.0225     0.0000   256.0000 </r>
       <r>     6.0759     0.0000   256.0000 </r>
       <r>     6.1292     0.0000   256.0000 </r>
       <r>     6.1825     0.0000   256.0000 </r>
       <r>     6.2358     0.0000   256.0000 </r>
       <r>     6.2891     0.0000   256.0000 </r>
       <r>     6.3424     0.0000   256.0000 </r>
       <r>     6.3958     0.0001   256.0000 </r>
       <r>     6.4491     0.0740   256.0040 </r>
       <r>     6.5024     4.8008   256.2599 </r>
       <r>     6.5557    41.8197   258.4896 </r>
       <r>     6.6090    54.6272   261.4022 </r>
       <r>     6.6624    10.9083   261.9838 </r>
       <r>     6.7157     0.3026   261.9999 </r>
       <r>     6.7690     0.0010   262.0000 </r>
       <r>     6.8223     0.0000   262.0000 </r>
       <r>     6.8756     0.0164   262.0009 </r>
       <r>     6.9289     1.8854   262.1014 </r>
       <r>     6.9823    28.0966   263.5994 </r>
       <r>     7.0356    61.0921   266.8567 </r>
       <r>     7.0889    20.4563   267.9474 </r>
       <r>     7.1422     1.1630   268.0094 </r>
       <r>     7.1955     5.0873   268.2806 </r>
       <r>     7.2488    19.7060   269.3313 </r>
       <r>     7.3022    11.5473   269.9470 </r>
       <r>     7.3555     0.9916   269.9999 </r>
       <r>     7.4088     1.2006   270.0639 </r>
       <r>     7.4621    22.5197   271.2646 </r>
       <r>     7.5154    61.6065   274.5493 </r>
       <r>     7.5687    34.2537   276.3756 </r>
       <r>     7.6221    52.3972   279.1693 </r>
       <r>     7.6754    46.7412   281.6614 </r>
       <r>     7.7287    16.9590   282.5656 </r>
       <r>     7.7820    81.5434   286.9133 </r>
       <r>     7.8353   107.3617   292.6375 </r>
       <r>     7.8887    24.6675   293.9527 </r>
       <r>     7.9420     2.3658   294.0789 </r>
       <r>     7.9953    35.2602   295.9588 </r>
       <r>     8.0486   126.1873   302.6868 </r>
       <r>     8.1019    84.0798   307.1697 </r>
       <r>     8.1552    14.8359   307.9608 </r>
       <r>     8.2086     1.5614   308.0440 </r>
       <r>     8.2619    18.8900   309.0512 </r>
       <r>     8.3152    60.8243   312.2942 </r>
       <r>     8.3685    29.8695   313.8867 </r>
       <r>     8.4218     4.4776   314.1255 </r>
       <r>     8.4751    42.9311   316.4144 </r>
       <r>     8.5285   128.8516   323.2845 </r>
       <r>     8.5818    77.5932   327.4215 </r>
       <r>     8.6351    10.5594   327.9845 </r>
       <r>     8.6884     0.2887   327.9999 </r>
       <r>     8.7417     0.0012   328.0000 </r>
       <r>     8.7950     0.0000   328.0000 </r>
       <r>     8.8484     0.0000   328.0000 </r>
       <r>     8.9017     0.0000   328.0000 </r>
       <r>     8.9550     0.0000   328.0000 </r>
       <r>     9.0083     0.0000   328.0000 </r>
       <r>     9.0616     0.0000   328.0000 </r>
       <r>     9.1150     0.0000   328.0000 </r>
       <r>     9.1683     0.0000   328.0000 </r>
       <r>     9.2216     0.0000   328.0000 </r>
       <r>     9.2749     0.0000   328.0000 </r>
      </set>
     </set>
    </array>
   </total>
  </dos>
 </calculation>
 <structure name="finalpos" >
  <crystal>
   <varray name="basis" >
    <v>      10.93252578       0.00000000       0.00000000 </v>
    <v>       0.00000000      10.93252578       0.00000000 </v>
    <v>       0.00000000       0.00000000      10.93252578 </v>
   </varray>
   <i name="volume">   1306.65679237 </i>
   <varray name="rec_basis" >
    <v>       0.09147017       0.00000000       0.00000000 </v>
    <v>       0.00000000       0.09147017       0.00000000 </v>
    <v>       0.00000000       0.00000000       0.09147017 </v>
   </varray>
  </crystal>
  <varray name="positions" >
   <v>       0.44024411       0.43750000       0.43750000 </v>
   <v>       0.93750000       0.43750000       0.43750000 </v>
   <v>       0.43750000       0.93750000       0.43750000 </v>
   <v>       0.93750000       0.93750000       0.43750000 </v>
   <v>       0.43750000       0.43750000       0.93750000 </v>
   <v>       0.93750000       0.43750000       0.93750000 </v>
   <v>       0.43750000       0.93750000       0.93750000 </v>
   <v>       0.93750000       0.93750000       0.93750000 </v>
   <v>       0.44024411       0.18750000       0.18750000 </v>
   <v>       0.93750000       0.18750000       0.18750000 </v>
   <v>       0.43750000       0.68750000       0.18750000 </v>
   <v>       0.93750000       0.68750000       0.18750000 </v>
   <v>       0.43750000       0.18750000       0.68750000 </v>
   <v>       0.93750000       0.18750000       0.68750000 </v>
   <v>       0.43750000       0.68750000       0.68750000 </v>
   <v>       0.93750000       0.68750000       0.68750000 </v>
   <v>       0.18750000       0.43750000       0.18750000 </v>
   <v>       0.68750000       0.43750000       0.18750000 </v>
   <v>       0.18750000       0.93750000       0.18750000 </v>
   <v>       0.68750000       0.93750000       0.18750000 </v>
   <v>       0.18750000       0.43750000       0.68750000 </v>
   <v>       0.68750000       0.43750000       0.68750000 </v>
   <v>       0.18750000       0.93750000       0.68750000 </v>
   <v>       0.68750000       0.93750000       0.68750000 </v>
   <v>       0.18750000       0.18750000       0.43750000 </v>
   <v>       0.68750000       0.18750000       0.43750000 </v>
   <v>       0.18750000       0.68750000       0.43750000 </v>
   <v>       0.68750000       0.68750000       0.43750000 </v>
   <v>       0.18750000       0.18750000       0.93750000 </v>
   <v>       0.68750000       0.18750000       0.93750000 </v>
   <v>       0.18750000       0.68750000       0.93750000 </v>
   <v>       0.68750000       0.68750000       0.93750000 </v>
   <v>       0.06250000       0.06250000       0.06250000 </v>
   <v>       0.56250000       0.06250000       0.06250000 </v>
   <v>       0.06250000       0.56250000       0.06250000 </v>
   <v>       0.56250000       0.56250000       0.06250000 </v>
   <v>       0.06250000       0.06250000       0.56250000 </v>
   <v>       0.56250000       0.06250000       0.56250000 </v>
   <v>       0.06250000       0.56250000       0.56250000 </v>
   <v>       0.56250000       0.56250000       0.56250000 </v>
   <v>       0.06250000       0.31250000       0.31250000 </v>
   <v>       0.56250000       0.31250000       0.31250000 </v>
   <v>       0.06250000       0.81250000       0.31250000 </v>
   <v>       0.56250000       0.81250000       0.31250000 </v>
   <v>       0.06250000       0.31250000       0.81250000 </v>
   <v>       0.56250000       0.31250000       0.81250000 </v>
   <v>       0.06250000       0.81250000       0.81250000 </v>
   <v>       0.56250000       0.81250000       0.81250000 </v>
   <v>       0.31250000       0.06250000       0.31250000 </v>
   <v>       0.81250000       0.06250000       0.31250000 </v>
   <v>       0.31250000       0.56250000       0.31250000 </v>
   <v>       0.81250000       0.56250000       0.31250000 </v>
   <v>       0.31250000       0.06250000       0.81250000 </v>
   <v>       0.81250000       0.06250000       0.81250000 </v>
   <v>       0.31250000       0.56250000       0.81250000 </v>
   <v>       0.81250000       0.56250000       0.81250000 </v>
   <v>       0.31250000       0.31250000       0.06250000 </v>
   <v>       0.81250000       0.31250000       0.06250000 </v>
   <v>       0.31250000       0.81250000       0.06250000 </v>
   <v>       0.81250000       0.81250000       0.06250000 </v>
   <v>       0.31250000       0.31250000       0.56250000 </v>
   <v>       0.81250000       0.31250000       0.56250000 </v>
   <v>       0.31250000       0.81250000       0.56250000 </v>
   <v>       0.81250000       0.81250000       0.56250000 </v>
  </varray>
 </structure>
</modeling>
