
     Program PWSCF v.5.3.0 (svn rev. 11974) starts on  3Feb2016 at 13:39:38 

     This program is part of the open-source Quantum ESPRESSO suite
     for quantum simulation of materials; please cite
         "P. Giannozzi et al., J. Phys.:Condens. Matter 21 395502 (2009);
          URL http://www.quantum-espresso.org", 
     in publications or presentations arising from this work. More details at
     http://www.quantum-espresso.org/quote

     Parallel version (MPI), running on    16 processors
     R & G space division:  proc/nbgrp/npool/nimage =      16
     Reading input from Si.in

     Current dimensions of program PWSCF are:
     Max number of different atomic species (ntypx) = 10
     Max number of k-points (npk) =  40000
     Max angular momentum in pseudopotentials (lmaxx) =  3
               file Si.pbe-n-kjpaw_psl.0.1.UPF: wavefunction(s)  3S renormalized

     Subspace diagonalization in iterative solution of the eigenvalue problem:
     one sub-group per k-point group (pool) will be used
     scalapack distributed-memory algorithm (size of sub-group:  2*  2 procs)

 
     Parallelization info
     --------------------
     sticks:   dense  smooth     PW     G-vecs:    dense   smooth      PW
     Min         424     424    109                26332    26332    3467
     Max         425     425    110                26336    26336    3472
     Sum        6785    6785   1757               421349   421349   55515
 


     bravais-lattice index     =            0
     lattice parameter (alat)  =      20.6591  a.u.
     unit-cell volume          =    8817.2783 (a.u.)^3
     number of atoms/cell      =           64
     number of atomic types    =            1
     number of electrons       =       256.00
     number of Kohn-Sham states=          154
     kinetic-energy cutoff     =      50.0000  Ry
     charge density cutoff     =     200.0000  Ry
     convergence threshold     =      1.0E-09
     mixing beta               =       0.7000
     number of iterations used =            8  plain     mixing
     Exchange-correlation      =  SLA  PW   PBX  PBC ( 1  4  3  4 0 0)

     celldm(1)=  20.659106  celldm(2)=   0.000000  celldm(3)=   0.000000
     celldm(4)=   0.000000  celldm(5)=   0.000000  celldm(6)=   0.000000

     crystal axes: (cart. coord. in units of alat)
               a(1) = (   1.000000   0.000000   0.000000 )  
               a(2) = (   0.000000   1.000000   0.000000 )  
               a(3) = (   0.000000   0.000000   1.000000 )  

     reciprocal axes: (cart. coord. in units 2 pi/alat)
               b(1) = (  1.000000  0.000000  0.000000 )  
               b(2) = (  0.000000  1.000000  0.000000 )  
               b(3) = (  0.000000  0.000000  1.000000 )  


     PseudoPot. # 1 for Si read from file:
     /home/togo/espresso/pseudo/Si.pbe-n-kjpaw_psl.0.1.UPF
     MD5 check sum: b9d333a40e496bef61db012f150758bf
     Pseudo is Projector augmented-wave + core cor, Zval =  4.0
     Generated using "atomic" code by A. Dal Corso  v.5.0.2 svn rev. 9415
     Shape of augmentation charge: PSQ
     Using radial grid of 1141 points,  4 beta functions with: 
                l(1) =   0
                l(2) =   0
                l(3) =   1
                l(4) =   1
     Q(r) pseudized with 0 coefficients 


     atomic species   valence    mass     pseudopotential
        Si             4.00    28.08550     Si( 1.00)

     No symmetry found



   Cartesian axes

     site n.     atom                  positions (alat units)
         1           Si  tau(   1) = (   0.4404043   0.4375000   0.4375000  )
         2           Si  tau(   2) = (   0.9375000   0.4375000   0.4375000  )
         3           Si  tau(   3) = (   0.4375000   0.9375000   0.4375000  )
         4           Si  tau(   4) = (   0.9375000   0.9375000   0.4375000  )
         5           Si  tau(   5) = (   0.4375000   0.4375000   0.9375000  )
         6           Si  tau(   6) = (   0.9375000   0.4375000   0.9375000  )
         7           Si  tau(   7) = (   0.4375000   0.9375000   0.9375000  )
         8           Si  tau(   8) = (   0.9375000   0.9375000   0.9375000  )
         9           Si  tau(   9) = (   0.4375000   0.1875000   0.1875000  )
        10           Si  tau(  10) = (   0.9375000   0.1875000   0.1875000  )
        11           Si  tau(  11) = (   0.4375000   0.6875000   0.1875000  )
        12           Si  tau(  12) = (   0.9375000   0.6875000   0.1875000  )
        13           Si  tau(  13) = (   0.4375000   0.1875000   0.6875000  )
        14           Si  tau(  14) = (   0.9375000   0.1875000   0.6875000  )
        15           Si  tau(  15) = (   0.4375000   0.6875000   0.6875000  )
        16           Si  tau(  16) = (   0.9375000   0.6875000   0.6875000  )
        17           Si  tau(  17) = (   0.1875000   0.4375000   0.1875000  )
        18           Si  tau(  18) = (   0.6875000   0.4375000   0.1875000  )
        19           Si  tau(  19) = (   0.1875000   0.9375000   0.1875000  )
        20           Si  tau(  20) = (   0.6845957   0.9375000   0.1875000  )
        21           Si  tau(  21) = (   0.1875000   0.4375000   0.6875000  )
        22           Si  tau(  22) = (   0.6875000   0.4375000   0.6875000  )
        23           Si  tau(  23) = (   0.1875000   0.9375000   0.6875000  )
        24           Si  tau(  24) = (   0.6875000   0.9375000   0.6875000  )
        25           Si  tau(  25) = (   0.1875000   0.1875000   0.4375000  )
        26           Si  tau(  26) = (   0.6875000   0.1875000   0.4375000  )
        27           Si  tau(  27) = (   0.1875000   0.6875000   0.4375000  )
        28           Si  tau(  28) = (   0.6875000   0.6875000   0.4375000  )
        29           Si  tau(  29) = (   0.1875000   0.1875000   0.9375000  )
        30           Si  tau(  30) = (   0.6875000   0.1875000   0.9375000  )
        31           Si  tau(  31) = (   0.1875000   0.6875000   0.9375000  )
        32           Si  tau(  32) = (   0.6875000   0.6875000   0.9375000  )
        33           Si  tau(  33) = (   0.0625000   0.0625000   0.0625000  )
        34           Si  tau(  34) = (   0.5625000   0.0625000   0.0625000  )
        35           Si  tau(  35) = (   0.0625000   0.5625000   0.0625000  )
        36           Si  tau(  36) = (   0.5625000   0.5625000   0.0625000  )
        37           Si  tau(  37) = (   0.0625000   0.0625000   0.5625000  )
        38           Si  tau(  38) = (   0.5625000   0.0625000   0.5625000  )
        39           Si  tau(  39) = (   0.0625000   0.5625000   0.5625000  )
        40           Si  tau(  40) = (   0.5625000   0.5625000   0.5625000  )
        41           Si  tau(  41) = (   0.0625000   0.3125000   0.3125000  )
        42           Si  tau(  42) = (   0.5625000   0.3125000   0.3125000  )
        43           Si  tau(  43) = (   0.0625000   0.8125000   0.3125000  )
        44           Si  tau(  44) = (   0.5625000   0.8125000   0.3125000  )
        45           Si  tau(  45) = (   0.0625000   0.3125000   0.8125000  )
        46           Si  tau(  46) = (   0.5625000   0.3125000   0.8125000  )
        47           Si  tau(  47) = (   0.0625000   0.8125000   0.8125000  )
        48           Si  tau(  48) = (   0.5625000   0.8125000   0.8125000  )
        49           Si  tau(  49) = (   0.3125000   0.0625000   0.3125000  )
        50           Si  tau(  50) = (   0.8125000   0.0625000   0.3125000  )
        51           Si  tau(  51) = (   0.3125000   0.5625000   0.3125000  )
        52           Si  tau(  52) = (   0.8125000   0.5625000   0.3125000  )
        53           Si  tau(  53) = (   0.3125000   0.0625000   0.8125000  )
        54           Si  tau(  54) = (   0.8125000   0.0625000   0.8125000  )
        55           Si  tau(  55) = (   0.3125000   0.5625000   0.8125000  )
        56           Si  tau(  56) = (   0.8125000   0.5625000   0.8125000  )
        57           Si  tau(  57) = (   0.3125000   0.3125000   0.0625000  )
        58           Si  tau(  58) = (   0.8125000   0.3125000   0.0625000  )
        59           Si  tau(  59) = (   0.3125000   0.8125000   0.0625000  )
        60           Si  tau(  60) = (   0.8125000   0.8125000   0.0625000  )
        61           Si  tau(  61) = (   0.3125000   0.3125000   0.5625000  )
        62           Si  tau(  62) = (   0.8125000   0.3125000   0.5625000  )
        63           Si  tau(  63) = (   0.3125000   0.8125000   0.5625000  )
        64           Si  tau(  64) = (   0.8125000   0.8125000   0.5625000  )

     number of k points=     4  gaussian smearing, width (Ry)=  0.0100
                       cart. coord. in units 2pi/alat
        k(    1) = (   0.2500000   0.2500000   0.2500000), wk =   0.5000000
        k(    2) = (  -0.2500000  -0.2500000   0.2500000), wk =   0.5000000
        k(    3) = (  -0.2500000   0.2500000  -0.2500000), wk =   0.5000000
        k(    4) = (   0.2500000  -0.2500000  -0.2500000), wk =   0.5000000

     Dense  grid:   421349 G-vectors     FFT dimensions: (  96,  96,  96)

     Largest allocated arrays     est. size (Mb)     dimensions
        Kohn-Sham Wavefunctions         7.73 Mb     (    3289,  154)
        NL pseudopotentials            25.70 Mb     (    3289,  512)
        Each V/rho on FFT grid          0.84 Mb     (   55296)
        Each G-vector array             0.20 Mb     (   26336)
        G-vector shells                 0.01 Mb     (    1719)
     Largest temporary arrays     est. size (Mb)     dimensions
        Auxiliary wavefunctions        30.91 Mb     (    3289,  616)
        Each subspace H/S matrix        1.45 Mb     (     308,  308)
        Each <psi_i|beta_j> matrix      1.20 Mb     (     512,  154)
        Arrays for rho mixing           6.75 Mb     (   55296,    8)

     Check: negative/imaginary core charge=   -0.000001    0.000000

     Initial potential from superposition of free atoms

     starting charge  255.96421, renormalised to  256.00000
     Starting wfc are  256 randomized atomic wfcs
     Checking if some PAW data can be deallocated... 

     total cpu time spent up to now is        9.9 secs

     per-process dynamical memory:   114.8 Mb

     Self-consistent Calculation

     iteration #  1     ecut=    50.00 Ry     beta=0.70
     Davidson diagonalization with overlap
     ethr =  1.00E-02,  avg # of iterations =  3.0

     Threshold (ethr) on eigenvalues was too large:
     Diagonalizing with lowered threshold

     Davidson diagonalization with overlap
     ethr =  7.00E-04,  avg # of iterations =  1.0

     total cpu time spent up to now is       47.0 secs

     total energy              =   -2990.45694532 Ry
     Harris-Foulkes estimate   =   -2990.87679832 Ry
     estimated scf accuracy    <       1.77309748 Ry

     iteration #  2     ecut=    50.00 Ry     beta=0.70
     Davidson diagonalization with overlap
     ethr =  6.93E-04,  avg # of iterations =  1.0

     total cpu time spent up to now is       58.9 secs

     total energy              =   -2990.52359996 Ry
     Harris-Foulkes estimate   =   -2990.52748214 Ry
     estimated scf accuracy    <       0.07633954 Ry

     iteration #  3     ecut=    50.00 Ry     beta=0.70
     Davidson diagonalization with overlap
     ethr =  2.98E-05,  avg # of iterations =  9.2

     total cpu time spent up to now is       84.0 secs

     total energy              =   -2990.53058341 Ry
     Harris-Foulkes estimate   =   -2990.53136511 Ry
     estimated scf accuracy    <       0.00195458 Ry

     iteration #  4     ecut=    50.00 Ry     beta=0.70
     Davidson diagonalization with overlap
     ethr =  7.64E-07,  avg # of iterations = 10.0

     total cpu time spent up to now is      124.4 secs

     total energy              =   -2990.53038416 Ry
     Harris-Foulkes estimate   =   -2990.53272069 Ry
     estimated scf accuracy    <       0.00741309 Ry

     iteration #  5     ecut=    50.00 Ry     beta=0.70
     Davidson diagonalization with overlap
     ethr =  7.64E-07,  avg # of iterations =  4.8

     total cpu time spent up to now is      146.1 secs

     total energy              =   -2990.53148151 Ry
     Harris-Foulkes estimate   =   -2990.53159660 Ry
     estimated scf accuracy    <       0.00032604 Ry

     iteration #  6     ecut=    50.00 Ry     beta=0.70
     Davidson diagonalization with overlap
     ethr =  1.27E-07,  avg # of iterations =  2.0

     total cpu time spent up to now is      161.2 secs

     total energy              =   -2990.53153976 Ry
     Harris-Foulkes estimate   =   -2990.53155735 Ry
     estimated scf accuracy    <       0.00004991 Ry

     iteration #  7     ecut=    50.00 Ry     beta=0.70
     Davidson diagonalization with overlap
     ethr =  1.95E-08,  avg # of iterations =  3.0

     total cpu time spent up to now is      177.3 secs

     total energy              =   -2990.53154887 Ry
     Harris-Foulkes estimate   =   -2990.53155052 Ry
     estimated scf accuracy    <       0.00000375 Ry

     iteration #  8     ecut=    50.00 Ry     beta=0.70
     Davidson diagonalization with overlap
     ethr =  1.46E-09,  avg # of iterations =  3.0

     total cpu time spent up to now is      197.4 secs

     total energy              =   -2990.53154996 Ry
     Harris-Foulkes estimate   =   -2990.53155017 Ry
     estimated scf accuracy    <       0.00000048 Ry

     iteration #  9     ecut=    50.00 Ry     beta=0.70
     Davidson diagonalization with overlap
     ethr =  1.89E-10,  avg # of iterations =  3.0

     total cpu time spent up to now is      213.9 secs

     total energy              =   -2990.53154998 Ry
     Harris-Foulkes estimate   =   -2990.53155008 Ry
     estimated scf accuracy    <       0.00000019 Ry

     iteration # 10     ecut=    50.00 Ry     beta=0.70
     Davidson diagonalization with overlap
     ethr =  7.54E-11,  avg # of iterations =  2.0

     total cpu time spent up to now is      228.4 secs

     total energy              =   -2990.53154996 Ry
     Harris-Foulkes estimate   =   -2990.53155001 Ry
     estimated scf accuracy    <       0.00000005 Ry

     iteration # 11     ecut=    50.00 Ry     beta=0.70
     Davidson diagonalization with overlap
     ethr =  2.05E-11,  avg # of iterations =  2.0

     total cpu time spent up to now is      243.5 secs

     total energy              =   -2990.53154997 Ry
     Harris-Foulkes estimate   =   -2990.53154997 Ry
     estimated scf accuracy    <          1.8E-09 Ry

     iteration # 12     ecut=    50.00 Ry     beta=0.70
     Davidson diagonalization with overlap
     ethr =  6.89E-13,  avg # of iterations =  3.0

     total cpu time spent up to now is      270.7 secs

     total energy              =   -2990.53154997 Ry
     Harris-Foulkes estimate   =   -2990.53154997 Ry
     estimated scf accuracy    <          1.5E-09 Ry

     iteration # 13     ecut=    50.00 Ry     beta=0.70
     Davidson diagonalization with overlap
     ethr =  5.79E-13,  avg # of iterations =  3.0

     total cpu time spent up to now is      287.3 secs

     End of self-consistent calculation

          k = 0.2500 0.2500 0.2500 ( 52563 PWs)   bands (ev):

    -5.6251  -5.1005  -5.0963  -5.0923  -4.6008  -4.5967  -4.5928  -4.1631
    -4.0676  -4.0633  -4.0592  -3.6554  -3.6498  -3.6489  -3.6468  -3.6440
    -3.6376  -3.4599  -3.4548  -3.4496  -2.9633  -2.9585  -2.9538  -2.5945
    -2.5892  -2.5841  -2.4283  -2.4238  -2.4223  -2.4205  -2.4181  -2.4117
    -0.8851  -0.8814  -0.8802  -0.8779  -0.8747  -0.8706  -0.7849  -0.7804
    -0.7758  -0.6658  -0.6622  -0.6586  -0.5833  -0.5762  -0.5687   0.1264
     0.2035   0.2068   0.2087   0.2117   0.2153   0.2186   1.0798   1.0854
     1.0908   1.4161   1.4183   1.4206   2.0247   2.0268   2.0283   2.0297
     2.0324   2.0330   2.0854   2.0880   2.0912   2.6377   2.6401   2.6424
     2.7378   2.7396   2.7421   2.7434   2.7470   2.7494   2.7931   2.7963
     2.7997   3.1030   3.1043   3.1063   3.1089   3.1101   3.1128   3.3696
     3.3718   3.3739   3.3841   3.3862   3.3883   3.7309   3.7347   3.7382
     3.7514   3.7565   3.7615   3.8368   3.8396   3.8423   4.1059   4.1111
     4.1137   4.1140   4.1174   4.1228   4.1505   4.1540   4.1570   4.4131
     4.4685   4.4709   4.4736   4.7113   4.7145   4.7179   4.7732   4.7787
     4.7850   4.9361   4.9363   5.2392   5.2436   5.2480   5.7239   5.7241
     6.9322   6.9363   6.9402   7.3719   7.3768   7.3815   7.5987   7.8580
     7.8619   7.8656   7.9871   7.9916   7.9965   8.1474   8.1512   8.1546
     8.1659   8.1694   8.1729   8.3968   8.3985   8.4003   8.4033   8.4066
     8.4087   8.4481

          k =-0.2500-0.2500 0.2500 ( 52563 PWs)   bands (ev):

    -5.6251  -5.0989  -5.0964  -5.0938  -4.5992  -4.5967  -4.5942  -4.1632
    -4.0659  -4.0634  -4.0608  -3.6555  -3.6492  -3.6486  -3.6464  -3.6447
    -3.6380  -3.4599  -3.4548  -3.4496  -2.9613  -2.9586  -2.9558  -2.5945
    -2.5892  -2.5841  -2.4281  -2.4237  -2.4225  -2.4201  -2.4184  -2.4118
    -0.8855  -0.8811  -0.8802  -0.8774  -0.8750  -0.8710  -0.7849  -0.7804
    -0.7758  -0.6657  -0.6622  -0.6585  -0.5815  -0.5762  -0.5706   0.1263
     0.2032   0.2071   0.2100   0.2112   0.2150   0.2180   1.0803   1.0855
     1.0904   1.4168   1.4183   1.4198   2.0255   2.0261   2.0286   2.0301
     2.0311   2.0329   2.0866   2.0884   2.0902   2.6377   2.6401   2.6424
     2.7380   2.7397   2.7420   2.7435   2.7463   2.7481   2.7947   2.7967
     2.7992   3.1022   3.1051   3.1070   3.1085   3.1107   3.1119   3.3699
     3.3718   3.3735   3.3849   3.3866   3.3873   3.7316   3.7346   3.7376
     3.7516   3.7566   3.7614   3.8374   3.8394   3.8416   4.1054   4.1119
     4.1136   4.1144   4.1167   4.1232   4.1515   4.1536   4.1566   4.4131
     4.4684   4.4710   4.4734   4.7122   4.7144   4.7168   4.7744   4.7787
     4.7836   4.9363   4.9364   5.2406   5.2435   5.2467   5.7239   5.7241
     6.9322   6.9363   6.9402   7.3727   7.3768   7.3806   7.5987   7.8587
     7.8620   7.8650   7.9870   7.9917   7.9964   8.1487   8.1514   8.1538
     8.1656   8.1691   8.1725   8.3957   8.3988   8.4013   8.4026   8.4069
     8.4089   8.4481

          k =-0.2500 0.2500-0.2500 ( 52563 PWs)   bands (ev):

    -5.6251  -5.1005  -5.0963  -5.0923  -4.6008  -4.5967  -4.5928  -4.1631
    -4.0676  -4.0633  -4.0592  -3.6554  -3.6498  -3.6489  -3.6468  -3.6440
    -3.6376  -3.4599  -3.4548  -3.4496  -2.9633  -2.9585  -2.9538  -2.5945
    -2.5892  -2.5841  -2.4283  -2.4238  -2.4223  -2.4205  -2.4181  -2.4117
    -0.8851  -0.8814  -0.8802  -0.8779  -0.8747  -0.8706  -0.7849  -0.7804
    -0.7758  -0.6658  -0.6622  -0.6586  -0.5833  -0.5762  -0.5687   0.1264
     0.2035   0.2068   0.2087   0.2117   0.2153   0.2186   1.0798   1.0854
     1.0908   1.4161   1.4183   1.4206   2.0247   2.0268   2.0283   2.0297
     2.0324   2.0330   2.0854   2.0880   2.0912   2.6377   2.6401   2.6424
     2.7378   2.7396   2.7421   2.7434   2.7470   2.7494   2.7931   2.7963
     2.7997   3.1030   3.1043   3.1063   3.1089   3.1101   3.1128   3.3696
     3.3718   3.3739   3.3841   3.3862   3.3883   3.7309   3.7347   3.7382
     3.7514   3.7565   3.7615   3.8368   3.8396   3.8423   4.1059   4.1111
     4.1137   4.1140   4.1174   4.1229   4.1505   4.1540   4.1570   4.4131
     4.4685   4.4709   4.4736   4.7113   4.7145   4.7179   4.7732   4.7787
     4.7850   4.9361   4.9363   5.2392   5.2436   5.2480   5.7239   5.7241
     6.9322   6.9363   6.9402   7.3719   7.3768   7.3815   7.5987   7.8580
     7.8619   7.8656   7.9871   7.9916   7.9965   8.1474   8.1512   8.1546
     8.1659   8.1694   8.1729   8.3968   8.3985   8.4003   8.4033   8.4066
     8.4087   8.4481

          k = 0.2500-0.2500-0.2500 ( 52563 PWs)   bands (ev):

    -5.6251  -5.0989  -5.0964  -5.0938  -4.5992  -4.5967  -4.5942  -4.1632
    -4.0659  -4.0634  -4.0608  -3.6555  -3.6492  -3.6486  -3.6464  -3.6447
    -3.6380  -3.4599  -3.4548  -3.4496  -2.9613  -2.9586  -2.9558  -2.5945
    -2.5892  -2.5841  -2.4281  -2.4237  -2.4225  -2.4201  -2.4184  -2.4118
    -0.8855  -0.8811  -0.8802  -0.8774  -0.8750  -0.8710  -0.7849  -0.7804
    -0.7758  -0.6657  -0.6622  -0.6585  -0.5815  -0.5762  -0.5706   0.1263
     0.2032   0.2071   0.2100   0.2112   0.2150   0.2180   1.0803   1.0855
     1.0904   1.4168   1.4183   1.4198   2.0255   2.0261   2.0286   2.0301
     2.0311   2.0329   2.0866   2.0884   2.0902   2.6377   2.6401   2.6424
     2.7380   2.7397   2.7420   2.7435   2.7463   2.7481   2.7947   2.7967
     2.7992   3.1022   3.1051   3.1070   3.1085   3.1107   3.1119   3.3699
     3.3718   3.3735   3.3849   3.3866   3.3873   3.7316   3.7346   3.7376
     3.7516   3.7566   3.7614   3.8374   3.8394   3.8416   4.1054   4.1119
     4.1136   4.1144   4.1167   4.1232   4.1515   4.1536   4.1566   4.4131
     4.4684   4.4710   4.4734   4.7122   4.7144   4.7168   4.7744   4.7787
     4.7836   4.9363   4.9364   5.2406   5.2435   5.2467   5.7239   5.7241
     6.9322   6.9363   6.9402   7.3727   7.3768   7.3806   7.5987   7.8587
     7.8620   7.8650   7.9870   7.9917   7.9964   8.1487   8.1514   8.1538
     8.1656   8.1691   8.1725   8.3957   8.3988   8.4013   8.4026   8.4069
     8.4089   8.4481

     the Fermi energy is     6.3274 ev

!    total energy              =   -2990.53154997 Ry
     Harris-Foulkes estimate   =   -2990.53154997 Ry
     estimated scf accuracy    <          6.2E-10 Ry

     total all-electron energy =    -37124.667103 Ry

     The total energy is the sum of the following terms:

     one-electron contribution =     178.60654794 Ry
     hartree contribution      =      35.70143360 Ry
     xc contribution           =    -391.44199790 Ry
     ewald contribution        =    -534.00622769 Ry
     one-center paw contrib.   =   -2279.39130592 Ry
     smearing contrib. (-TS)   =       0.00000000 Ry

     convergence has been achieved in  13 iterations

     Forces acting on atoms (Ry/au):

     atom    1 type  1   force =    -0.01593394   -0.00001019   -0.00007668
     atom    2 type  1   force =    -0.00001954   -0.00000927    0.00007740
     atom    3 type  1   force =    -0.00018344   -0.00011380    0.00023250
     atom    4 type  1   force =    -0.00023858   -0.00010979   -0.00022742
     atom    5 type  1   force =     0.00001123    0.00000903    0.00007633
     atom    6 type  1   force =    -0.00004897    0.00000986   -0.00007741
     atom    7 type  1   force =    -0.00071323    0.00011454   -0.00023334
     atom    8 type  1   force =    -0.00020681    0.00011000    0.00022748
     atom    9 type  1   force =    -0.00076603    0.00034727   -0.00000048
     atom   10 type  1   force =    -0.00023172   -0.00021862   -0.00010089
     atom   11 type  1   force =    -0.00076279   -0.00012391    0.00000337
     atom   12 type  1   force =    -0.00023016    0.00023756    0.00010003
     atom   13 type  1   force =    -0.00056674   -0.00018548    0.00010112
     atom   14 type  1   force =    -0.00004180    0.00006708    0.00000043
     atom   15 type  1   force =    -0.00057183   -0.00003830   -0.00010386
     atom   16 type  1   force =    -0.00004216   -0.00008623    0.00000055
     atom   17 type  1   force =     0.00023988   -0.00010919    0.00022693
     atom   18 type  1   force =     0.00018212   -0.00011435   -0.00023331
     atom   19 type  1   force =     0.00002061   -0.00000980   -0.00007770
     atom   20 type  1   force =     0.01593296   -0.00000992    0.00007632
     atom   21 type  1   force =     0.00020794    0.00010998   -0.00022671
     atom   22 type  1   force =     0.00071212    0.00011403    0.00023390
     atom   23 type  1   force =     0.00005003    0.00000949    0.00007754
     atom   24 type  1   force =    -0.00001215    0.00001001   -0.00007576
     atom   25 type  1   force =     0.00023136    0.00023724   -0.00010012
     atom   26 type  1   force =     0.00076138   -0.00012416   -0.00000398
     atom   27 type  1   force =     0.00023206   -0.00021818    0.00010058
     atom   28 type  1   force =     0.00076584    0.00034733   -0.00000061
     atom   29 type  1   force =     0.00004414   -0.00008625   -0.00000064
     atom   30 type  1   force =     0.00057006   -0.00003812    0.00010465
     atom   31 type  1   force =     0.00004256    0.00006703    0.00000005
     atom   32 type  1   force =     0.00056568   -0.00018556   -0.00010026
     atom   33 type  1   force =    -0.00000839    0.00006894   -0.00000733
     atom   34 type  1   force =    -0.00367423    0.00273350   -0.00267779
     atom   35 type  1   force =     0.00000126    0.00005196   -0.00000239
     atom   36 type  1   force =    -0.00000115    0.00008862   -0.00001171
     atom   37 type  1   force =     0.00000039    0.00005141    0.00000219
     atom   38 type  1   force =    -0.00000027    0.00008904    0.00001162
     atom   39 type  1   force =     0.00000968    0.00006969    0.00000739
     atom   40 type  1   force =     0.00367265    0.00273282    0.00267784
     atom   41 type  1   force =    -0.00003782   -0.00006334   -0.00001154
     atom   42 type  1   force =     0.00398885   -0.00274378   -0.00265650
     atom   43 type  1   force =     0.00003918   -0.00006337    0.00001121
     atom   44 type  1   force =    -0.00399015   -0.00274328    0.00265532
     atom   45 type  1   force =     0.00004873   -0.00005771    0.00000642
     atom   46 type  1   force =    -0.00031773   -0.00007830   -0.00001026
     atom   47 type  1   force =    -0.00004694   -0.00005798   -0.00000614
     atom   48 type  1   force =     0.00031591   -0.00007794    0.00001154
     atom   49 type  1   force =    -0.00004570   -0.00007517    0.00001325
     atom   50 type  1   force =    -0.00378369   -0.00250840   -0.00245266
     atom   51 type  1   force =     0.00378346   -0.00250816    0.00245173
     atom   52 type  1   force =     0.00004598   -0.00007463   -0.00001374
     atom   53 type  1   force =     0.00022471   -0.00005645    0.00000144
     atom   54 type  1   force =     0.00003682   -0.00008242   -0.00000636
     atom   55 type  1   force =    -0.00003714   -0.00008270    0.00000690
     atom   56 type  1   force =    -0.00022444   -0.00005675   -0.00000056
     atom   57 type  1   force =    -0.00008608    0.00007851   -0.00000927
     atom   58 type  1   force =     0.00008615    0.00006570    0.00002443
     atom   59 type  1   force =     0.00026535    0.00006532    0.00001013
     atom   60 type  1   force =    -0.00383340    0.00251298    0.00245036
     atom   61 type  1   force =     0.00383341    0.00251280   -0.00244997
     atom   62 type  1   force =    -0.00026556    0.00006519   -0.00000975
     atom   63 type  1   force =    -0.00008708    0.00006596   -0.00002430
     atom   64 type  1   force =     0.00008721    0.00007861    0.00000850

     Total force =     0.027189     Total SCF correction =     0.000050

     Writing output data file pwscf.save
 
     init_run     :      8.10s CPU      8.23s WALL (       1 calls)
     electrons    :    268.64s CPU    277.74s WALL (       1 calls)
     forces       :      3.63s CPU      3.69s WALL (       1 calls)

     Called by init_run:
     wfcinit      :      7.61s CPU      7.71s WALL (       1 calls)
     potinit      :      0.20s CPU      0.20s WALL (       1 calls)

     Called by electrons:
     c_bands      :    240.52s CPU    247.06s WALL (      14 calls)
     sum_band     :     21.32s CPU     21.93s WALL (      14 calls)
     v_of_rho     :      0.50s CPU      0.51s WALL (      14 calls)
     newd         :      0.71s CPU      0.72s WALL (      14 calls)
     PAW_pot      :      2.00s CPU      2.00s WALL (      14 calls)
     mix_rho      :      0.17s CPU      0.17s WALL (      14 calls)

     Called by c_bands:
     init_us_2    :      1.22s CPU      1.23s WALL (     120 calls)
     cegterg      :    236.89s CPU    238.82s WALL (      56 calls)

     Called by sum_band:
     sum_band:bec :      0.05s CPU      0.05s WALL (      56 calls)
     addusdens    :      0.70s CPU      0.76s WALL (      14 calls)

     Called by *egterg:
     h_psi        :    109.42s CPU    109.75s WALL (     260 calls)
     s_psi        :     29.80s CPU     29.86s WALL (     260 calls)
     g_psi        :      0.68s CPU      0.69s WALL (     200 calls)
     cdiaghg      :     40.60s CPU     40.66s WALL (     252 calls)

     Called by h_psi:
     add_vuspsi   :     29.88s CPU     29.94s WALL (     260 calls)

     General routines
     calbec       :     44.13s CPU     44.23s WALL (     332 calls)
     fft          :      0.33s CPU      0.34s WALL (     195 calls)
     fftw         :     52.67s CPU     52.90s WALL (   57150 calls)
     davcio       :      0.00s CPU      0.01s WALL (       4 calls)
 
     Parallel routines
     fft_scatter  :     11.87s CPU     11.85s WALL (   57345 calls)
 
     PWSCF        :  4m40.67s CPU     6m20.12s WALL

 
   This run was terminated on:  13:45:58   3Feb2016            

=------------------------------------------------------------------------------=
   JOB DONE.
=------------------------------------------------------------------------------=
