
     Program PWSCF v.5.3.0 (svn rev. 11974) starts on  3Feb2016 at 13:31:57 

     This program is part of the open-source Quantum ESPRESSO suite
     for quantum simulation of materials; please cite
         "P. Giannozzi et al., J. Phys.:Condens. Matter 21 395502 (2009);
          URL http://www.quantum-espresso.org", 
     in publications or presentations arising from this work. More details at
     http://www.quantum-espresso.org/quote

     Parallel version (MPI), running on    16 processors
     R & G space division:  proc/nbgrp/npool/nimage =      16
     Reading input from Si.in

     Current dimensions of program PWSCF are:
     Max number of different atomic species (ntypx) = 10
     Max number of k-points (npk) =  40000
     Max angular momentum in pseudopotentials (lmaxx) =  3
               file Si.pbe-n-kjpaw_psl.0.1.UPF: wavefunction(s)  3S renormalized

     Subspace diagonalization in iterative solution of the eigenvalue problem:
     one sub-group per k-point group (pool) will be used
     scalapack distributed-memory algorithm (size of sub-group:  2*  2 procs)

 
     Parallelization info
     --------------------
     sticks:   dense  smooth     PW     G-vecs:    dense   smooth      PW
     Min         424     424    109                26332    26332    3467
     Max         425     425    110                26336    26336    3472
     Sum        6785    6785   1757               421349   421349   55515
 


     bravais-lattice index     =            0
     lattice parameter (alat)  =      20.6591  a.u.
     unit-cell volume          =    8817.2783 (a.u.)^3
     number of atoms/cell      =           64
     number of atomic types    =            1
     number of electrons       =       256.00
     number of Kohn-Sham states=          154
     kinetic-energy cutoff     =      50.0000  Ry
     charge density cutoff     =     200.0000  Ry
     convergence threshold     =      1.0E-09
     mixing beta               =       0.7000
     number of iterations used =            8  plain     mixing
     Exchange-correlation      =  SLA  PW   PBX  PBC ( 1  4  3  4 0 0)

     celldm(1)=  20.659106  celldm(2)=   0.000000  celldm(3)=   0.000000
     celldm(4)=   0.000000  celldm(5)=   0.000000  celldm(6)=   0.000000

     crystal axes: (cart. coord. in units of alat)
               a(1) = (   1.000000   0.000000   0.000000 )  
               a(2) = (   0.000000   1.000000   0.000000 )  
               a(3) = (   0.000000   0.000000   1.000000 )  

     reciprocal axes: (cart. coord. in units 2 pi/alat)
               b(1) = (  1.000000  0.000000  0.000000 )  
               b(2) = (  0.000000  1.000000  0.000000 )  
               b(3) = (  0.000000  0.000000  1.000000 )  


     PseudoPot. # 1 for Si read from file:
     /home/togo/espresso/pseudo/Si.pbe-n-kjpaw_psl.0.1.UPF
     MD5 check sum: b9d333a40e496bef61db012f150758bf
     Pseudo is Projector augmented-wave + core cor, Zval =  4.0
     Generated using "atomic" code by A. Dal Corso  v.5.0.2 svn rev. 9415
     Shape of augmentation charge: PSQ
     Using radial grid of 1141 points,  4 beta functions with: 
                l(1) =   0
                l(2) =   0
                l(3) =   1
                l(4) =   1
     Q(r) pseudized with 0 coefficients 


     atomic species   valence    mass     pseudopotential
        Si             4.00    28.08550     Si( 1.00)

     No symmetry found



   Cartesian axes

     site n.     atom                  positions (alat units)
         1           Si  tau(   1) = (   0.4404043   0.4375000   0.4375000  )
         2           Si  tau(   2) = (   0.9375000   0.4375000   0.4375000  )
         3           Si  tau(   3) = (   0.4375000   0.9375000   0.4375000  )
         4           Si  tau(   4) = (   0.9354464   0.9354464   0.4375000  )
         5           Si  tau(   5) = (   0.4375000   0.4375000   0.9375000  )
         6           Si  tau(   6) = (   0.9375000   0.4375000   0.9375000  )
         7           Si  tau(   7) = (   0.4375000   0.9375000   0.9375000  )
         8           Si  tau(   8) = (   0.9375000   0.9375000   0.9375000  )
         9           Si  tau(   9) = (   0.4375000   0.1875000   0.1875000  )
        10           Si  tau(  10) = (   0.9375000   0.1875000   0.1875000  )
        11           Si  tau(  11) = (   0.4375000   0.6875000   0.1875000  )
        12           Si  tau(  12) = (   0.9375000   0.6875000   0.1875000  )
        13           Si  tau(  13) = (   0.4375000   0.1875000   0.6875000  )
        14           Si  tau(  14) = (   0.9375000   0.1875000   0.6875000  )
        15           Si  tau(  15) = (   0.4375000   0.6875000   0.6875000  )
        16           Si  tau(  16) = (   0.9375000   0.6875000   0.6875000  )
        17           Si  tau(  17) = (   0.1875000   0.4375000   0.1875000  )
        18           Si  tau(  18) = (   0.6875000   0.4375000   0.1875000  )
        19           Si  tau(  19) = (   0.1875000   0.9375000   0.1875000  )
        20           Si  tau(  20) = (   0.6875000   0.9375000   0.1875000  )
        21           Si  tau(  21) = (   0.1875000   0.4375000   0.6875000  )
        22           Si  tau(  22) = (   0.6875000   0.4375000   0.6875000  )
        23           Si  tau(  23) = (   0.1875000   0.9375000   0.6875000  )
        24           Si  tau(  24) = (   0.6875000   0.9375000   0.6875000  )
        25           Si  tau(  25) = (   0.1875000   0.1875000   0.4375000  )
        26           Si  tau(  26) = (   0.6875000   0.1875000   0.4375000  )
        27           Si  tau(  27) = (   0.1875000   0.6875000   0.4375000  )
        28           Si  tau(  28) = (   0.6875000   0.6875000   0.4375000  )
        29           Si  tau(  29) = (   0.1875000   0.1875000   0.9375000  )
        30           Si  tau(  30) = (   0.6875000   0.1875000   0.9375000  )
        31           Si  tau(  31) = (   0.1875000   0.6875000   0.9375000  )
        32           Si  tau(  32) = (   0.6875000   0.6875000   0.9375000  )
        33           Si  tau(  33) = (   0.0625000   0.0625000   0.0625000  )
        34           Si  tau(  34) = (   0.5625000   0.0625000   0.0625000  )
        35           Si  tau(  35) = (   0.0625000   0.5625000   0.0625000  )
        36           Si  tau(  36) = (   0.5625000   0.5625000   0.0625000  )
        37           Si  tau(  37) = (   0.0625000   0.0625000   0.5625000  )
        38           Si  tau(  38) = (   0.5625000   0.0625000   0.5625000  )
        39           Si  tau(  39) = (   0.0625000   0.5625000   0.5625000  )
        40           Si  tau(  40) = (   0.5625000   0.5625000   0.5625000  )
        41           Si  tau(  41) = (   0.0625000   0.3125000   0.3125000  )
        42           Si  tau(  42) = (   0.5625000   0.3125000   0.3125000  )
        43           Si  tau(  43) = (   0.0625000   0.8125000   0.3125000  )
        44           Si  tau(  44) = (   0.5625000   0.8125000   0.3125000  )
        45           Si  tau(  45) = (   0.0625000   0.3125000   0.8125000  )
        46           Si  tau(  46) = (   0.5625000   0.3125000   0.8125000  )
        47           Si  tau(  47) = (   0.0625000   0.8125000   0.8125000  )
        48           Si  tau(  48) = (   0.5625000   0.8125000   0.8125000  )
        49           Si  tau(  49) = (   0.3125000   0.0625000   0.3125000  )
        50           Si  tau(  50) = (   0.8125000   0.0625000   0.3125000  )
        51           Si  tau(  51) = (   0.3125000   0.5625000   0.3125000  )
        52           Si  tau(  52) = (   0.8125000   0.5625000   0.3125000  )
        53           Si  tau(  53) = (   0.3125000   0.0625000   0.8125000  )
        54           Si  tau(  54) = (   0.8125000   0.0625000   0.8125000  )
        55           Si  tau(  55) = (   0.3125000   0.5625000   0.8125000  )
        56           Si  tau(  56) = (   0.8125000   0.5625000   0.8125000  )
        57           Si  tau(  57) = (   0.3125000   0.3125000   0.0625000  )
        58           Si  tau(  58) = (   0.8125000   0.3125000   0.0625000  )
        59           Si  tau(  59) = (   0.3125000   0.8125000   0.0625000  )
        60           Si  tau(  60) = (   0.8125000   0.8125000   0.0625000  )
        61           Si  tau(  61) = (   0.3125000   0.3125000   0.5625000  )
        62           Si  tau(  62) = (   0.8125000   0.3125000   0.5625000  )
        63           Si  tau(  63) = (   0.3125000   0.8125000   0.5625000  )
        64           Si  tau(  64) = (   0.8125000   0.8125000   0.5625000  )

     number of k points=     4  gaussian smearing, width (Ry)=  0.0100
                       cart. coord. in units 2pi/alat
        k(    1) = (   0.2500000   0.2500000   0.2500000), wk =   0.5000000
        k(    2) = (  -0.2500000  -0.2500000   0.2500000), wk =   0.5000000
        k(    3) = (  -0.2500000   0.2500000  -0.2500000), wk =   0.5000000
        k(    4) = (   0.2500000  -0.2500000  -0.2500000), wk =   0.5000000

     Dense  grid:   421349 G-vectors     FFT dimensions: (  96,  96,  96)

     Largest allocated arrays     est. size (Mb)     dimensions
        Kohn-Sham Wavefunctions         7.73 Mb     (    3289,  154)
        NL pseudopotentials            25.70 Mb     (    3289,  512)
        Each V/rho on FFT grid          0.84 Mb     (   55296)
        Each G-vector array             0.20 Mb     (   26336)
        G-vector shells                 0.01 Mb     (    1719)
     Largest temporary arrays     est. size (Mb)     dimensions
        Auxiliary wavefunctions        30.91 Mb     (    3289,  616)
        Each subspace H/S matrix        1.45 Mb     (     308,  308)
        Each <psi_i|beta_j> matrix      1.20 Mb     (     512,  154)
        Arrays for rho mixing           6.75 Mb     (   55296,    8)

     Check: negative/imaginary core charge=   -0.000001    0.000000

     Initial potential from superposition of free atoms

     starting charge  255.96421, renormalised to  256.00000
     Starting wfc are  256 randomized atomic wfcs
     Checking if some PAW data can be deallocated... 

     total cpu time spent up to now is        9.1 secs

     per-process dynamical memory:   114.8 Mb

     Self-consistent Calculation

     iteration #  1     ecut=    50.00 Ry     beta=0.70
     Davidson diagonalization with overlap
     ethr =  1.00E-02,  avg # of iterations =  3.0

     Threshold (ethr) on eigenvalues was too large:
     Diagonalizing with lowered threshold

     Davidson diagonalization with overlap
     ethr =  7.00E-04,  avg # of iterations =  1.0

     total cpu time spent up to now is       43.7 secs

     total energy              =   -2990.45692867 Ry
     Harris-Foulkes estimate   =   -2990.87682862 Ry
     estimated scf accuracy    <       1.77324147 Ry

     iteration #  2     ecut=    50.00 Ry     beta=0.70
     Davidson diagonalization with overlap
     ethr =  6.93E-04,  avg # of iterations =  1.0

     total cpu time spent up to now is       56.8 secs

     total energy              =   -2990.52359882 Ry
     Harris-Foulkes estimate   =   -2990.52748591 Ry
     estimated scf accuracy    <       0.07633193 Ry

     iteration #  3     ecut=    50.00 Ry     beta=0.70
     Davidson diagonalization with overlap
     ethr =  2.98E-05,  avg # of iterations = 10.2

     total cpu time spent up to now is       85.6 secs

     total energy              =   -2990.53054163 Ry
     Harris-Foulkes estimate   =   -2990.53137921 Ry
     estimated scf accuracy    <       0.00201511 Ry

     iteration #  4     ecut=    50.00 Ry     beta=0.70
     Davidson diagonalization with overlap
     ethr =  7.87E-07,  avg # of iterations =  7.0

     total cpu time spent up to now is      121.9 secs

     total energy              =   -2990.53023949 Ry
     Harris-Foulkes estimate   =   -2990.53287857 Ry
     estimated scf accuracy    <       0.00846027 Ry

     iteration #  5     ecut=    50.00 Ry     beta=0.70
     Davidson diagonalization with overlap
     ethr =  7.87E-07,  avg # of iterations =  5.0

     total cpu time spent up to now is      146.5 secs

     total energy              =   -2990.53148095 Ry
     Harris-Foulkes estimate   =   -2990.53160119 Ry
     estimated scf accuracy    <       0.00033978 Ry

     iteration #  6     ecut=    50.00 Ry     beta=0.70
     Davidson diagonalization with overlap
     ethr =  1.33E-07,  avg # of iterations =  2.0

     total cpu time spent up to now is      162.7 secs

     total energy              =   -2990.53154164 Ry
     Harris-Foulkes estimate   =   -2990.53155973 Ry
     estimated scf accuracy    <       0.00005139 Ry

     iteration #  7     ecut=    50.00 Ry     beta=0.70
     Davidson diagonalization with overlap
     ethr =  2.01E-08,  avg # of iterations =  2.2

     total cpu time spent up to now is      179.7 secs

     total energy              =   -2990.53155113 Ry
     Harris-Foulkes estimate   =   -2990.53155265 Ry
     estimated scf accuracy    <       0.00000340 Ry

     iteration #  8     ecut=    50.00 Ry     beta=0.70
     Davidson diagonalization with overlap
     ethr =  1.33E-09,  avg # of iterations =  3.0

     total cpu time spent up to now is      200.7 secs

     total energy              =   -2990.53155218 Ry
     Harris-Foulkes estimate   =   -2990.53155239 Ry
     estimated scf accuracy    <       0.00000050 Ry

     iteration #  9     ecut=    50.00 Ry     beta=0.70
     Davidson diagonalization with overlap
     ethr =  1.95E-10,  avg # of iterations =  3.0

     total cpu time spent up to now is      218.5 secs

     total energy              =   -2990.53155220 Ry
     Harris-Foulkes estimate   =   -2990.53155231 Ry
     estimated scf accuracy    <       0.00000022 Ry

     iteration # 10     ecut=    50.00 Ry     beta=0.70
     Davidson diagonalization with overlap
     ethr =  8.76E-11,  avg # of iterations =  2.0

     total cpu time spent up to now is      234.3 secs

     total energy              =   -2990.53155219 Ry
     Harris-Foulkes estimate   =   -2990.53155223 Ry
     estimated scf accuracy    <       0.00000004 Ry

     iteration # 11     ecut=    50.00 Ry     beta=0.70
     Davidson diagonalization with overlap
     ethr =  1.73E-11,  avg # of iterations =  2.0

     total cpu time spent up to now is      251.1 secs

     total energy              =   -2990.53155220 Ry
     Harris-Foulkes estimate   =   -2990.53155219 Ry
     estimated scf accuracy    <          2.3E-09 Ry

     iteration # 12     ecut=    50.00 Ry     beta=0.70
     Davidson diagonalization with overlap
     ethr =  9.03E-13,  avg # of iterations =  3.0

     total cpu time spent up to now is      274.5 secs

     total energy              =   -2990.53155220 Ry
     Harris-Foulkes estimate   =   -2990.53155220 Ry
     estimated scf accuracy    <          2.1E-09 Ry

     iteration # 13     ecut=    50.00 Ry     beta=0.70
     Davidson diagonalization with overlap
     ethr =  8.15E-13,  avg # of iterations =  3.0

     total cpu time spent up to now is      292.5 secs

     End of self-consistent calculation

          k = 0.2500 0.2500 0.2500 ( 52563 PWs)   bands (ev):

    -5.6251  -5.1005  -5.0955  -5.0930  -4.6008  -4.5958  -4.5936  -4.1635
    -4.0674  -4.0627  -4.0600  -3.6554  -3.6495  -3.6471  -3.6458  -3.6438
    -3.6404  -3.4564  -3.4554  -3.4520  -2.9630  -2.9586  -2.9552  -2.5916
    -2.5899  -2.5862  -2.4290  -2.4226  -2.4212  -2.4198  -2.4177  -2.4139
    -0.8870  -0.8809  -0.8786  -0.8765  -0.8745  -0.8734  -0.7829  -0.7809
    -0.7776  -0.6655  -0.6627  -0.6596  -0.5838  -0.5763  -0.5654   0.1270
     0.2043   0.2083   0.2106   0.2109   0.2124   0.2163   1.0781   1.0858
     1.0937   1.4151   1.4185   1.4214   2.0242   2.0269   2.0283   2.0297
     2.0316   2.0340   2.0854   2.0891   2.0896   2.6394   2.6401   2.6420
     2.7360   2.7391   2.7426   2.7439   2.7469   2.7486   2.7929   2.7964
     2.7987   3.1017   3.1056   3.1070   3.1084   3.1110   3.1122   3.3701
     3.3719   3.3726   3.3832   3.3861   3.3885   3.7301   3.7356   3.7383
     3.7554   3.7565   3.7604   3.8372   3.8396   3.8411   4.1075   4.1114
     4.1145   4.1151   4.1170   4.1233   4.1511   4.1538   4.1554   4.4141
     4.4686   4.4707   4.4719   4.7118   4.7142   4.7162   4.7728   4.7790
     4.7883   4.9337   4.9382   5.2402   5.2430   5.2457   5.7210   5.7261
     6.9342   6.9355   6.9380   7.3727   7.3768   7.3803   7.5984   7.8580
     7.8617   7.8649   7.9893   7.9925   7.9939   8.1484   8.1503   8.1547
     8.1669   8.1692   8.1715   8.3960   8.3981   8.4022   8.4028   8.4075
     8.4093   8.4481

          k =-0.2500-0.2500 0.2500 ( 52563 PWs)   bands (ev):

    -5.6250  -5.0997  -5.0971  -5.0923  -4.5999  -4.5975  -4.5928  -4.1631
    -4.0664  -4.0639  -4.0593  -3.6540  -3.6502  -3.6481  -3.6469  -3.6449
    -3.6391  -3.4576  -3.4543  -3.4528  -2.9619  -2.9584  -2.9542  -2.5922
    -2.5886  -2.5873  -2.4276  -2.4238  -2.4219  -2.4204  -2.4188  -2.4123
    -0.8833  -0.8823  -0.8795  -0.8775  -0.8766  -0.8703  -0.7834  -0.7792
    -0.7777  -0.6649  -0.6617  -0.6591  -0.5864  -0.5762  -0.5682   0.1254
     0.2053   0.2090   0.2105   0.2108   0.2137   0.2172   1.0770   1.0850
     1.0925   1.4152   1.4183   1.4215   2.0240   2.0269   2.0287   2.0301
     2.0315   2.0339   2.0867   2.0874   2.0913   2.6382   2.6401   2.6409
     2.7376   2.7393   2.7427   2.7439   2.7474   2.7495   2.7940   2.7961
     2.8006   3.1029   3.1043   3.1068   3.1083   3.1097   3.1134   3.3704
     3.3720   3.3734   3.3847   3.3858   3.3890   3.7292   3.7339   3.7383
     3.7546   3.7565   3.7575   3.8379   3.8394   3.8421   4.1054   4.1114
     4.1135   4.1141   4.1168   4.1209   4.1519   4.1533   4.1568   4.4124
     4.4699   4.4709   4.4733   4.7128   4.7148   4.7171   4.7701   4.7784
     4.7855   4.9342   4.9387   5.2414   5.2439   5.2471   5.7220   5.7270
     6.9343   6.9370   6.9384   7.3731   7.3769   7.3808   7.5990   7.8587
     7.8621   7.8658   7.9892   7.9907   7.9940   8.1471   8.1523   8.1545
     8.1679   8.1692   8.1715   8.3952   8.3973   8.4014   8.4025   8.4064
     8.4087   8.4491

          k =-0.2500 0.2500-0.2500 ( 52563 PWs)   bands (ev):

    -5.6251  -5.0999  -5.0959  -5.0930  -4.6003  -4.5966  -4.5933  -4.1636
    -4.0671  -4.0634  -4.0602  -3.6554  -3.6503  -3.6484  -3.6468  -3.6435
    -3.6367  -3.4562  -3.4549  -3.4520  -2.9631  -2.9604  -2.9551  -2.5907
    -2.5899  -2.5868  -2.4286  -2.4238  -2.4224  -2.4208  -2.4168  -2.4111
    -0.8876  -0.8825  -0.8812  -0.8780  -0.8728  -0.8696  -0.7826  -0.7807
    -0.7784  -0.6656  -0.6627  -0.6612  -0.5774  -0.5758  -0.5685   0.1281
     0.2023   0.2052   0.2060   0.2107   0.2170   0.2189   1.0810   1.0870
     1.0916   1.4161   1.4187   1.4201   2.0255   2.0266   2.0284   2.0300
     2.0314   2.0327   2.0852   2.0871   2.0906   2.6401   2.6405   2.6423
     2.7362   2.7385   2.7422   2.7438   2.7467   2.7475   2.7918   2.7953
     2.7989   3.1016   3.1045   3.1064   3.1079   3.1120   3.1137   3.3694
     3.3713   3.3719   3.3835   3.3860   3.3880   3.7319   3.7358   3.7392
     3.7562   3.7570   3.7612   3.8349   3.8395   3.8424   4.1114   4.1119
     4.1147   4.1162   4.1175   4.1213   4.1485   4.1534   4.1576   4.4153
     4.4683   4.4704   4.4708   4.7091   4.7140   4.7170   4.7777   4.7805
     4.7859   4.9341   4.9373   5.2364   5.2430   5.2472   5.7210   5.7247
     6.9343   6.9346   6.9371   7.3693   7.3773   7.3823   7.5979   7.8556
     7.8614   7.8659   7.9903   7.9928   7.9941   8.1475   8.1508   8.1544
     8.1672   8.1689   8.1708   8.3972   8.3990   8.4025   8.4043   8.4074
     8.4094   8.4470

          k = 0.2500-0.2500-0.2500 ( 52563 PWs)   bands (ev):

    -5.6250  -5.0996  -5.0968  -5.0927  -4.6001  -4.5970  -4.5931  -4.1626
    -4.0665  -4.0635  -4.0596  -3.6578  -3.6506  -3.6471  -3.6456  -3.6438
    -3.6391  -3.4575  -3.4542  -3.4534  -2.9620  -2.9569  -2.9541  -2.5918
    -2.5891  -2.5876  -2.4303  -2.4245  -2.4209  -2.4191  -2.4177  -2.4128
    -0.8877  -0.8840  -0.8781  -0.8752  -0.8741  -0.8698  -0.7819  -0.7791
    -0.7781  -0.6634  -0.6617  -0.6591  -0.5833  -0.5764  -0.5748   0.1244
     0.2027   0.2045   0.2107   0.2155   0.2166   0.2192   1.0790   1.0839
     1.0896   1.4165   1.4179   1.4206   2.0256   2.0270   2.0283   2.0299
     2.0317   2.0329   2.0861   2.0890   2.0912   2.6375   2.6396   2.6401
     2.7388   2.7398   2.7428   2.7444   2.7479   2.7492   2.7939   2.7972
     2.8017   3.1013   3.1033   3.1073   3.1087   3.1109   3.1136   3.3711
     3.3722   3.3729   3.3849   3.3869   3.3895   3.7301   3.7332   3.7378
     3.7526   3.7556   3.7567   3.8367   3.8397   3.8440   4.1066   4.1109
     4.1118   4.1138   4.1164   4.1172   4.1510   4.1535   4.1589   4.4112
     4.4711   4.4716   4.4738   4.7116   4.7146   4.7200   4.7724   4.7772
     4.7800   4.9354   4.9384   5.2401   5.2438   5.2510   5.7236   5.7269
     6.9351   6.9378   6.9382   7.3710   7.3764   7.3838   7.5994   7.8577
     7.8624   7.8678   7.9895   7.9900   7.9934   8.1474   8.1520   8.1547
     8.1688   8.1693   8.1711   8.3952   8.3973   8.4008   8.4026   8.4054
     8.4077   8.4493

     the Fermi energy is     6.3266 ev

!    total energy              =   -2990.53155220 Ry
     Harris-Foulkes estimate   =   -2990.53155220 Ry
     estimated scf accuracy    <          9.5E-10 Ry

     total all-electron energy =    -37124.667105 Ry

     The total energy is the sum of the following terms:

     one-electron contribution =     178.60638671 Ry
     hartree contribution      =      35.70151883 Ry
     xc contribution           =    -391.44199794 Ry
     ewald contribution        =    -534.00615378 Ry
     one-center paw contrib.   =   -2279.39130603 Ry
     smearing contrib. (-TS)   =       0.00000000 Ry

     convergence has been achieved in  13 iterations

     Forces acting on atoms (Ry/au):

     atom    1 type  1   force =    -0.01588519    0.00000545    0.00000039
     atom    2 type  1   force =    -0.00001668   -0.00001565   -0.00000009
     atom    3 type  1   force =     0.00003892   -0.00003922   -0.00000003
     atom    4 type  1   force =     0.01125662    0.01126352   -0.00060401
     atom    5 type  1   force =     0.00003793   -0.00001708    0.00000066
     atom    6 type  1   force =     0.00032749    0.00000512    0.00000020
     atom    7 type  1   force =    -0.00046937    0.00033470   -0.00000029
     atom    8 type  1   force =    -0.00001505   -0.00003897    0.00000083
     atom    9 type  1   force =    -0.00052065    0.00007781    0.00006697
     atom   10 type  1   force =     0.00044988   -0.00023672    0.00025020
     atom   11 type  1   force =    -0.00051696    0.00007170   -0.00006173
     atom   12 type  1   force =     0.00045049   -0.00023518   -0.00025202
     atom   13 type  1   force =    -0.00053086   -0.00013356    0.00017016
     atom   14 type  1   force =     0.00029294   -0.00009404   -0.00007523
     atom   15 type  1   force =    -0.00053448   -0.00013774   -0.00017493
     atom   16 type  1   force =     0.00029170   -0.00009946    0.00007259
     atom   17 type  1   force =     0.00019383   -0.00010269    0.00018045
     atom   18 type  1   force =     0.00020151   -0.00010717   -0.00018523
     atom   19 type  1   force =    -0.00020450    0.00044068    0.00016431
     atom   20 type  1   force =    -0.00020067    0.00044066   -0.00016619
     atom   21 type  1   force =     0.00020658    0.00010243   -0.00016721
     atom   22 type  1   force =     0.00021539    0.00010773    0.00017198
     atom   23 type  1   force =    -0.00004261    0.00030159   -0.00000830
     atom   24 type  1   force =    -0.00004659    0.00030189    0.00000575
     atom   25 type  1   force =    -0.00009101   -0.00009437   -0.00026581
     atom   26 type  1   force =     0.00023623   -0.00023705   -0.00011691
     atom   27 type  1   force =     0.00022621   -0.00023055    0.00010696
     atom   28 type  1   force =    -0.00009717   -0.00010333    0.00027311
     atom   29 type  1   force =     0.00006569   -0.00005287   -0.00002287
     atom   30 type  1   force =    -0.00004143   -0.00000724   -0.00000924
     atom   31 type  1   force =    -0.00004200   -0.00000846    0.00000972
     atom   32 type  1   force =     0.00006696   -0.00005314    0.00002379
     atom   33 type  1   force =    -0.00001648    0.00003742   -0.00002195
     atom   34 type  1   force =     0.00021757   -0.00017153   -0.00000982
     atom   35 type  1   force =    -0.00017448   -0.00001294   -0.00001282
     atom   36 type  1   force =    -0.00006602    0.00004362   -0.00000465
     atom   37 type  1   force =    -0.00435098   -0.00435138   -0.00338131
     atom   38 type  1   force =    -0.00007769    0.00005342   -0.00001369
     atom   39 type  1   force =     0.00000152    0.00002029   -0.00002590
     atom   40 type  1   force =     0.00389058    0.00266552    0.00266326
     atom   41 type  1   force =     0.00005448   -0.00000226   -0.00002861
     atom   42 type  1   force =     0.00392891   -0.00270593   -0.00270421
     atom   43 type  1   force =    -0.00090790   -0.00090411    0.00001783
     atom   44 type  1   force =    -0.00002363    0.00002992   -0.00005913
     atom   45 type  1   force =    -0.00013533   -0.00002563   -0.00002445
     atom   46 type  1   force =    -0.00002269   -0.00001230   -0.00003906
     atom   47 type  1   force =     0.00005373    0.00004798   -0.00003323
     atom   48 type  1   force =     0.00025592   -0.00018901   -0.00002915
     atom   49 type  1   force =    -0.00002352    0.00003076    0.00006131
     atom   50 type  1   force =    -0.00085038   -0.00096029    0.00007302
     atom   51 type  1   force =     0.00381071   -0.00248258    0.00248300
     atom   52 type  1   force =     0.00005723   -0.00000177    0.00002883
     atom   53 type  1   force =     0.00025347   -0.00018817    0.00002825
     atom   54 type  1   force =     0.00005841    0.00004533    0.00002918
     atom   55 type  1   force =    -0.00002134   -0.00001459    0.00003670
     atom   56 type  1   force =    -0.00013225   -0.00002955    0.00002533
     atom   57 type  1   force =    -0.00006567    0.00004502    0.00000706
     atom   58 type  1   force =    -0.00017177   -0.00000906    0.00001083
     atom   59 type  1   force =     0.00021423   -0.00017341    0.00001048
     atom   60 type  1   force =    -0.00001624    0.00003559    0.00002398
     atom   61 type  1   force =     0.00377518    0.00244602   -0.00244523
     atom   62 type  1   force =     0.00000286    0.00001976    0.00002405
     atom   63 type  1   force =    -0.00007739    0.00005185    0.00001031
     atom   64 type  1   force =    -0.00474421   -0.00474681    0.00391182

     Total force =     0.027133     Total SCF correction =     0.000063

     Writing output data file pwscf.save
 
     init_run     :      8.70s CPU      8.86s WALL (       1 calls)
     electrons    :    280.40s CPU    283.72s WALL (       1 calls)
     forces       :      4.12s CPU      4.17s WALL (       1 calls)

     Called by init_run:
     wfcinit      :      8.14s CPU      8.22s WALL (       1 calls)
     potinit      :      0.23s CPU      0.24s WALL (       1 calls)

     Called by electrons:
     c_bands      :    252.44s CPU    255.33s WALL (      14 calls)
     sum_band     :     23.86s CPU     24.03s WALL (      14 calls)
     v_of_rho     :      0.67s CPU      0.68s WALL (      14 calls)
     newd         :      0.97s CPU      1.01s WALL (      14 calls)
     PAW_pot      :      2.31s CPU      2.31s WALL (      14 calls)
     mix_rho      :      0.31s CPU      0.31s WALL (      14 calls)

     Called by c_bands:
     init_us_2    :      2.72s CPU      2.74s WALL (     120 calls)
     cegterg      :    247.37s CPU    250.17s WALL (      56 calls)

     Called by sum_band:
     sum_band:bec :      0.05s CPU      0.05s WALL (      56 calls)
     addusdens    :      0.99s CPU      1.09s WALL (      14 calls)

     Called by *egterg:
     h_psi        :    116.75s CPU    117.01s WALL (     250 calls)
     s_psi        :     30.38s CPU     30.40s WALL (     250 calls)
     g_psi        :      1.06s CPU      1.06s WALL (     190 calls)
     cdiaghg      :     37.44s CPU     37.46s WALL (     242 calls)

     Called by h_psi:
     add_vuspsi   :     30.20s CPU     30.23s WALL (     250 calls)

     General routines
     calbec       :     46.91s CPU     46.95s WALL (     322 calls)
     fft          :      0.39s CPU      0.39s WALL (     195 calls)
     fftw         :     56.81s CPU     56.99s WALL (   57002 calls)
     davcio       :      0.01s CPU      0.04s WALL (       4 calls)
 
     Parallel routines
     fft_scatter  :     12.79s CPU     12.79s WALL (   57197 calls)
 
     PWSCF        :  4m53.53s CPU     5m 9.19s WALL

 
   This run was terminated on:  13:37: 6   3Feb2016            

=------------------------------------------------------------------------------=
   JOB DONE.
=------------------------------------------------------------------------------=
