<?xml version="1.0" encoding="ISO-8859-1"?>
<modeling>
 <generator>
  <i name="program" type="string">vasp </i>
  <i name="version" type="string">5.4.1  </i>
  <i name="subversion" type="string">05Feb16 (build Mar 26 2016 11:58:25) complex                          parallel </i>
  <i name="platform" type="string">IFC91_ompi </i>
  <i name="date" type="string">2017 03 12 </i>
  <i name="time" type="string">12:16:56 </i>
 </generator>
 <incar>
  <i type="string" name="PREC">accurate</i>
  <i type="int" name="IALGO">    38</i>
  <i type="logical" name="ADDGRID"> T  </i>
  <i type="int" name="NELMIN">     5</i>
  <i type="int" name="IBRION">    -1</i>
  <i name="EDIFF">      0.00000001</i>
  <i name="ENCUT">    300.00000000</i>
  <i type="logical" name="LREAL"> F  </i>
  <i type="int" name="ISMEAR">     0</i>
  <i name="SIGMA">      0.05000000</i>
  <i type="logical" name="LWAVE"> F  </i>
  <i type="logical" name="LCHARG"> F  </i>
  <v type="int" name="KPOINT_BSE">    -1     0     0     0</v>
 </incar>
 <kpoints>
  <generation param="Monkhorst-Pack">
   <v type="int" name="divisions">       2        2        2 </v>
   <v name="usershift">      0.00000000       0.00000000       0.00000000 </v>
   <v name="genvec1">      0.50000000       0.00000000       0.00000000 </v>
   <v name="genvec2">      0.00000000       0.50000000       0.00000000 </v>
   <v name="genvec3">      0.00000000       0.00000000       0.50000000 </v>
   <v name="shift">      0.50000000       0.50000000       0.50000000 </v>
  </generation>
  <varray name="kpointlist" >
   <v>       0.25000000       0.25000000       0.25000000 </v>
   <v>      -0.25000000       0.25000000       0.25000000 </v>
   <v>       0.25000000      -0.25000000       0.25000000 </v>
   <v>      -0.25000000      -0.25000000       0.25000000 </v>
  </varray>
  <varray name="weights" >
   <v>       0.25000000 </v>
   <v>       0.25000000 </v>
   <v>       0.25000000 </v>
   <v>       0.25000000 </v>
  </varray>
 </kpoints>
 <parameters>
  <separator name="general" >
   <i type="string" name="SYSTEM">unknown system</i>
   <i type="logical" name="LCOMPAT"> F  </i>
  </separator>
  <separator name="electronic" >
   <i type="string" name="PREC">accura</i>
   <i name="ENMAX">    300.00000000</i>
   <i name="ENAUG">    322.06900000</i>
   <i name="EDIFF">      0.00000001</i>
   <i type="int" name="IALGO">    38</i>
   <i type="int" name="IWAVPR">    10</i>
   <i type="int" name="NBANDS">   164</i>
   <i name="NELECT">    256.00000000</i>
   <i type="int" name="TURBO">     0</i>
   <i type="int" name="IRESTART">     0</i>
   <i type="int" name="NREBOOT">     0</i>
   <i type="int" name="NMIN">     0</i>
   <i name="EREF">      0.00000000</i>
   <separator name="electronic smearing" >
    <i type="int" name="ISMEAR">     0</i>
    <i name="SIGMA">      0.05000000</i>
    <i name="KSPACING">      0.50000000</i>
    <i type="logical" name="KGAMMA"> T  </i>
   </separator>
   <separator name="electronic projectors" >
    <i type="logical" name="LREAL"> F  </i>
    <v name="ROPT">      0.00000000</v>
    <i type="int" name="LMAXPAW">  -100</i>
    <i type="int" name="LMAXMIX">     2</i>
    <i type="logical" name="NLSPLINE"> F  </i>
   </separator>
   <separator name="electronic startup" >
    <i type="int" name="ISTART">     0</i>
    <i type="int" name="ICHARG">     2</i>
    <i type="int" name="INIWAV">     1</i>
   </separator>
   <separator name="electronic spin" >
    <i type="int" name="ISPIN">     1</i>
    <i type="logical" name="LNONCOLLINEAR"> F  </i>
    <v name="MAGMOM">      1.00000000      1.00000000      1.00000000      1.00000000      1.00000000      1.00000000      1.00000000      1.00000000      1.00000000      1.00000000      1.00000000      1.00000000      1.00000000      1.00000000      1.00000000      1.00000000      1.00000000      1.00000000      1.00000000      1.00000000
      1.00000000      1.00000000      1.00000000      1.00000000      1.00000000      1.00000000      1.00000000      1.00000000      1.00000000      1.00000000      1.00000000      1.00000000      1.00000000      1.00000000      1.00000000      1.00000000      1.00000000      1.00000000      1.00000000      1.00000000
      1.00000000      1.00000000      1.00000000      1.00000000      1.00000000      1.00000000      1.00000000      1.00000000      1.00000000      1.00000000      1.00000000      1.00000000      1.00000000      1.00000000      1.00000000      1.00000000      1.00000000      1.00000000      1.00000000      1.00000000
      1.00000000      1.00000000      1.00000000      1.00000000</v>
    <i name="NUPDOWN">     -1.00000000</i>
    <i type="logical" name="LSORBIT"> F  </i>
    <v name="SAXIS">      0.00000000      0.00000000      1.00000000</v>
    <i type="logical" name="LSPIRAL"> F  </i>
    <v name="QSPIRAL">      0.00000000      0.00000000      0.00000000</v>
    <i type="logical" name="LZEROZ"> F  </i>
   </separator>
   <separator name="electronic exchange-correlation" >
    <i type="logical" name="LASPH"> F  </i>
    <i type="logical" name="LMETAGGA"> F  </i>
   </separator>
   <separator name="electronic convergence" >
    <i type="int" name="NELM">    60</i>
    <i type="int" name="NELMDL">    -5</i>
    <i type="int" name="NELMIN">     5</i>
    <i name="ENINI">    300.00000000</i>
    <separator name="electronic convergence detail" >
     <i type="logical" name="LDIAG"> T  </i>
     <i type="logical" name="LSUBROT"> F  </i>
     <i name="WEIMIN">      0.00000000</i>
     <i name="EBREAK">      0.00000000</i>
     <i name="DEPER">      0.30000000</i>
     <i type="int" name="NRMM">     4</i>
     <i name="TIME">      0.40000000</i>
    </separator>
   </separator>
   <separator name="electronic mixer" >
    <i name="AMIX">      0.40000000</i>
    <i name="BMIX">      1.00000000</i>
    <i name="AMIN">      0.10000000</i>
    <i name="AMIX_MAG">      1.60000000</i>
    <i name="BMIX_MAG">      1.00000000</i>
    <separator name="electronic mixer details" >
     <i type="int" name="IMIX">     4</i>
     <i type="logical" name="MIXFIRST"> F  </i>
     <i type="int" name="MAXMIX">   -45</i>
     <i name="WC">    100.00000000</i>
     <i type="int" name="INIMIX">     1</i>
     <i type="int" name="MIXPRE">     1</i>
     <i type="int" name="MREMOVE">     5</i>
    </separator>
   </separator>
   <separator name="electronic dipolcorrection" >
    <i type="logical" name="LDIPOL"> F  </i>
    <i type="logical" name="LMONO"> F  </i>
    <i type="int" name="IDIPOL">     0</i>
    <i name="EPSILON">      1.00000000</i>
    <v name="DIPOL">   -100.00000000   -100.00000000   -100.00000000</v>
    <i name="EFIELD">      0.00000000</i>
   </separator>
  </separator>
  <separator name="grids" >
   <i type="int" name="NGX">    64</i>
   <i type="int" name="NGY">    64</i>
   <i type="int" name="NGZ">    64</i>
   <i type="int" name="NGXF">   128</i>
   <i type="int" name="NGYF">   128</i>
   <i type="int" name="NGZF">   128</i>
   <i type="logical" name="ADDGRID"> T  </i>
  </separator>
  <separator name="ionic" >
   <i type="int" name="NSW">     0</i>
   <i type="int" name="IBRION">    -1</i>
   <i type="int" name="ISIF">     2</i>
   <i name="PSTRESS">      0.00000000</i>
   <i name="EDIFFG">      0.00000010</i>
   <i type="int" name="NFREE">     0</i>
   <i name="POTIM">      0.50000000</i>
   <i name="SMASS">     -3.00000000</i>
   <i name="SCALEE">      1.00000000</i>
  </separator>
  <separator name="ionic md" >
   <i name="TEBEG">      0.00010000</i>
   <i name="TEEND">      0.00010000</i>
   <i type="int" name="NBLOCK">     1</i>
   <i type="int" name="KBLOCK">     1</i>
   <i type="int" name="NPACO">   256</i>
   <i name="APACO">     16.00000000</i>
  </separator>
  <separator name="symmetry" >
   <i type="int" name="ISYM">     2</i>
   <i name="SYMPREC">      0.00001000</i>
  </separator>
  <separator name="dos" >
   <i type="logical" name="LORBIT"> F  </i>
   <v name="RWIGS">     -1.00000000</v>
   <i type="int" name="NEDOS">   301</i>
   <i name="EMIN">     10.00000000</i>
   <i name="EMAX">    -10.00000000</i>
   <i name="EFERMI">      0.00000000</i>
  </separator>
  <separator name="writing" >
   <i type="int" name="NWRITE">     2</i>
   <i type="logical" name="LWAVE"> F  </i>
   <i type="logical" name="LCHARG"> F  </i>
   <i type="logical" name="LPARD"> F  </i>
   <i type="logical" name="LVTOT"> F  </i>
   <i type="logical" name="LVHAR"> F  </i>
   <i type="logical" name="LELF"> F  </i>
   <i type="logical" name="LOPTICS"> F  </i>
   <v name="STM">      0.00000000      0.00000000      0.00000000      0.00000000      0.00000000      0.00000000      0.00000000</v>
  </separator>
  <separator name="performance" >
   <i type="int" name="NPAR">     4</i>
   <i type="int" name="NSIM">     4</i>
   <i type="int" name="NBLK">    -1</i>
   <i type="logical" name="LPLANE"> T  </i>
   <i type="logical" name="LSCALAPACK"> T  </i>
   <i type="logical" name="LSCAAWARE"> F  </i>
   <i type="logical" name="LSCALU"> F  </i>
   <i type="logical" name="LASYNC"> F  </i>
   <i type="logical" name="LORBITALREAL"> F  </i>
  </separator>
  <separator name="miscellaneous" >
   <i type="int" name="IDIOT">     3</i>
   <i type="logical" name="LMUSIC"> F  </i>
   <v name="POMASS">     28.08500000</v>
   <v name="DARWINR">      0.00000000</v>
   <v name="DARWINV">      1.00000000</v>
   <i type="logical" name="LCORR"> T  </i>
  </separator>
  <i type="logical" name="GGA_COMPAT"> T  </i>
  <i type="logical" name="LBERRY"> F  </i>
  <i type="int" name="ICORELEVEL">     0</i>
  <i type="logical" name="LDAU"> F  </i>
  <i type="int" name="I_CONSTRAINED_M">     0</i>
  <separator name="electronic exchange-correlation" >
   <i type="string" name="GGA">--</i>
   <i type="int" name="VOSKOWN">     0</i>
   <i type="logical" name="LHFCALC"> F  </i>
   <i type="string" name="PRECFOCK"></i>
   <i type="logical" name="LSYMGRAD"> F  </i>
   <i type="logical" name="LHFONE"> F  </i>
   <i type="logical" name="LRHFCALC"> F  </i>
   <i type="logical" name="LTHOMAS"> F  </i>
   <i type="logical" name="LMODELHF"> F  </i>
   <i name="ENCUT4O">     -1.00000000</i>
   <i type="int" name="EXXOEP">     0</i>
   <i type="int" name="FOURORBIT">     0</i>
   <i name="AEXX">      0.00000000</i>
   <i name="HFALPHA">      0.00000000</i>
   <i name="MCALPHA">      0.00000000</i>
   <i name="ALDAX">      1.00000000</i>
   <i name="AGGAX">      1.00000000</i>
   <i name="ALDAC">      1.00000000</i>
   <i name="AGGAC">      1.00000000</i>
   <i type="int" name="NKREDX">     1</i>
   <i type="int" name="NKREDY">     1</i>
   <i type="int" name="NKREDZ">     1</i>
   <i type="logical" name="SHIFTRED"> F  </i>
   <i type="logical" name="ODDONLY"> F  </i>
   <i type="logical" name="EVENONLY"> F  </i>
   <i type="int" name="LMAXFOCK">     0</i>
   <i type="int" name="NMAXFOCKAE">     0</i>
   <i type="logical" name="LFOCKAEDFT"> F  </i>
   <i name="HFSCREEN">      0.00000000</i>
   <i name="HFSCREENC">      0.00000000</i>
   <i type="int" name="NBANDSGWLOW">     0</i>
  </separator>
  <separator name="vdW DFT" >
   <i type="logical" name="LUSE_VDW"> F  </i>
   <i name="Zab_VDW">     -0.84910000</i>
   <i name="PARAM1">      0.12340000</i>
   <i name="PARAM2">      1.00000000</i>
   <i name="PARAM3">      0.00000000</i>
  </separator>
  <separator name="model GW" >
   <i type="int" name="MODEL_GW">     0</i>
   <i name="MODEL_EPS0">     12.24990743</i>
   <i name="MODEL_ALPHA">      1.00000000</i>
  </separator>
  <separator name="linear response parameters" >
   <i type="logical" name="LEPSILON"> F  </i>
   <i type="logical" name="LRPA"> F  </i>
   <i type="logical" name="LNABLA"> F  </i>
   <i type="logical" name="LVEL"> F  </i>
   <i type="int" name="KINTER">     0</i>
   <i name="CSHIFT">      0.10000000</i>
   <i name="OMEGAMAX">     -1.00000000</i>
   <i name="DEG_THRESHOLD">      0.00200000</i>
  </separator>
  <separator name="orbital magnetization" >
   <i type="logical" name="NUCIND"> F  </i>
   <v name="MAGPOS">      0.00000000      0.00000000      0.00000000</v>
   <i type="logical" name="LNICSALL"> T  </i>
   <i type="logical" name="ORBITALMAG"> F  </i>
   <i type="logical" name="LMAGBLOCH"> F  </i>
   <i type="logical" name="LCHIMAG"> F  </i>
   <i type="logical" name="LGAUGE"> T  </i>
   <i type="int" name="MAGATOM">     0</i>
   <v name="MAGDIPOL">      0.00000000      0.00000000      0.00000000</v>
   <v name="AVECCONST">      0.00000000      0.00000000      0.00000000</v>
  </separator>
  <separator name="response functions" >
   <i type="logical" name="LADDER"> F  </i>
   <i type="logical" name="LFXC"> F  </i>
   <i type="logical" name="LHARTREE"> T  </i>
   <i type="int" name="IBSE">     0</i>
   <v type="int" name="KPOINT">    -1     0     0     0</v>
   <i type="logical" name="LTCTE"> F  </i>
   <i type="logical" name="LTETE"> F  </i>
   <i type="logical" name="LTRIPLET"> F  </i>
   <i type="logical" name="LFXCEPS"> F  </i>
   <i type="logical" name="LFXHEG"> F  </i>
   <i type="int" name="NATURALO">     0</i>
   <i type="logical" name="L2ORDER"> F  </i>
   <i type="logical" name="LUSEW"> F  </i>
   <i name="ENCUTGW">     -2.00000000</i>
   <i name="ENCUTGWSOFT">     -2.00000000</i>
   <i name="ENCUTLF">     -1.00000000</i>
   <i type="int" name="LMAXMP2">    -1</i>
   <i name="SCISSOR">      0.00000000</i>
   <i type="int" name="NOMEGA">     0</i>
   <i type="int" name="NOMEGAR">     0</i>
   <i type="int" name="NBANDSGW">    -1</i>
   <i type="int" name="NBANDSO">    -1</i>
   <i type="int" name="NBANDSV">    -1</i>
   <i type="int" name="NELM">     1</i>
   <i type="int" name="NELMHF">     1</i>
   <i type="int" name="DIM">     3</i>
   <i type="int" name="ANTIRES">     0</i>
   <i name="OMEGAMAX">    -30.00000000</i>
   <i name="OMEGAMIN">    -30.00000000</i>
   <i name="OMEGATL">   -200.00000000</i>
   <i type="int" name="OMEGAGRID">     0</i>
   <i name="CSHIFT">     -0.10000000</i>
   <i type="logical" name="SELFENERGY"> F  </i>
   <i type="logical" name="LSPECTRAL"> F  </i>
   <i type="logical" name="LSPECTRALGW"> F  </i>
   <i type="logical" name="LSINGLES"> F  </i>
   <i type="logical" name="LFERMIGW"> F  </i>
   <i type="logical" name="ODDONLYGW"> F  </i>
   <i type="logical" name="EVENONLYGW"> F  </i>
   <i type="int" name="NKREDLFX">     1</i>
   <i type="int" name="NKREDLFY">     1</i>
   <i type="int" name="NKREDLFZ">     1</i>
   <i type="int" name="MAXMEM">  1800</i>
   <i type="int" name="TELESCOPE">     0</i>
   <i type="int" name="TAUPAR">     1</i>
   <i type="int" name="OMEGAPAR">    -1</i>
   <i name="LAMBDA">      1.00000000</i>
  </separator>
  <separator name="External order field" >
   <i name="OFIELD_KAPPA">      0.00000000</i>
   <v name="OFIELD_K">      0.00000000      0.00000000      0.00000000</v>
   <i name="OFIELD_Q6_NEAR">      0.00000000</i>
   <i name="OFIELD_Q6_FAR">      0.00000000</i>
   <i name="OFIELD_A">      0.00000000</i>
  </separator>
 </parameters>
 <atominfo>
  <atoms>      64 </atoms>
  <types>       1 </types>
  <array name="atoms" >
   <dimension dim="1">ion</dimension>
   <field type="string">element</field>
   <field type="int">atomtype</field>
   <set>
    <rc><c>Si</c><c>   1</c></rc>
    <rc><c>Si</c><c>   1</c></rc>
    <rc><c>Si</c><c>   1</c></rc>
    <rc><c>Si</c><c>   1</c></rc>
    <rc><c>Si</c><c>   1</c></rc>
    <rc><c>Si</c><c>   1</c></rc>
    <rc><c>Si</c><c>   1</c></rc>
    <rc><c>Si</c><c>   1</c></rc>
    <rc><c>Si</c><c>   1</c></rc>
    <rc><c>Si</c><c>   1</c></rc>
    <rc><c>Si</c><c>   1</c></rc>
    <rc><c>Si</c><c>   1</c></rc>
    <rc><c>Si</c><c>   1</c></rc>
    <rc><c>Si</c><c>   1</c></rc>
    <rc><c>Si</c><c>   1</c></rc>
    <rc><c>Si</c><c>   1</c></rc>
    <rc><c>Si</c><c>   1</c></rc>
    <rc><c>Si</c><c>   1</c></rc>
    <rc><c>Si</c><c>   1</c></rc>
    <rc><c>Si</c><c>   1</c></rc>
    <rc><c>Si</c><c>   1</c></rc>
    <rc><c>Si</c><c>   1</c></rc>
    <rc><c>Si</c><c>   1</c></rc>
    <rc><c>Si</c><c>   1</c></rc>
    <rc><c>Si</c><c>   1</c></rc>
    <rc><c>Si</c><c>   1</c></rc>
    <rc><c>Si</c><c>   1</c></rc>
    <rc><c>Si</c><c>   1</c></rc>
    <rc><c>Si</c><c>   1</c></rc>
    <rc><c>Si</c><c>   1</c></rc>
    <rc><c>Si</c><c>   1</c></rc>
    <rc><c>Si</c><c>   1</c></rc>
    <rc><c>Si</c><c>   1</c></rc>
    <rc><c>Si</c><c>   1</c></rc>
    <rc><c>Si</c><c>   1</c></rc>
    <rc><c>Si</c><c>   1</c></rc>
    <rc><c>Si</c><c>   1</c></rc>
    <rc><c>Si</c><c>   1</c></rc>
    <rc><c>Si</c><c>   1</c></rc>
    <rc><c>Si</c><c>   1</c></rc>
    <rc><c>Si</c><c>   1</c></rc>
    <rc><c>Si</c><c>   1</c></rc>
    <rc><c>Si</c><c>   1</c></rc>
    <rc><c>Si</c><c>   1</c></rc>
    <rc><c>Si</c><c>   1</c></rc>
    <rc><c>Si</c><c>   1</c></rc>
    <rc><c>Si</c><c>   1</c></rc>
    <rc><c>Si</c><c>   1</c></rc>
    <rc><c>Si</c><c>   1</c></rc>
    <rc><c>Si</c><c>   1</c></rc>
    <rc><c>Si</c><c>   1</c></rc>
    <rc><c>Si</c><c>   1</c></rc>
    <rc><c>Si</c><c>   1</c></rc>
    <rc><c>Si</c><c>   1</c></rc>
    <rc><c>Si</c><c>   1</c></rc>
    <rc><c>Si</c><c>   1</c></rc>
    <rc><c>Si</c><c>   1</c></rc>
    <rc><c>Si</c><c>   1</c></rc>
    <rc><c>Si</c><c>   1</c></rc>
    <rc><c>Si</c><c>   1</c></rc>
    <rc><c>Si</c><c>   1</c></rc>
    <rc><c>Si</c><c>   1</c></rc>
    <rc><c>Si</c><c>   1</c></rc>
    <rc><c>Si</c><c>   1</c></rc>
   </set>
  </array>
  <array name="atomtypes" >
   <dimension dim="1">type</dimension>
   <field type="int">atomspertype</field>
   <field type="string">element</field>
   <field>mass</field>
   <field>valence</field>
   <field type="string">pseudopotential</field>
   <set>
    <rc><c>  64</c><c>Si</c><c>     28.08500000</c><c>      4.00000000</c><c>  PAW_PBE Si 05Jan2001                  </c></rc>
   </set>
  </array>
 </atominfo>
 <structure name="initialpos" >
  <crystal>
   <varray name="basis" >
    <v>      10.93252578       0.00000000       0.00000000 </v>
    <v>       0.00000000      10.93252578       0.00000000 </v>
    <v>       0.00000000       0.00000000      10.93252578 </v>
   </varray>
   <i name="volume">   1306.65679237 </i>
   <varray name="rec_basis" >
    <v>       0.09147017       0.00000000       0.00000000 </v>
    <v>       0.00000000       0.09147017       0.00000000 </v>
    <v>       0.00000000       0.00000000       0.09147017 </v>
   </varray>
  </crystal>
  <varray name="positions" >
   <v>       0.44024411       0.43750000       0.43750000 </v>
   <v>       0.93750000       0.43750000       0.43750000 </v>
   <v>       0.43750000       0.93750000       0.43750000 </v>
   <v>       0.93750000       0.93750000       0.43750000 </v>
   <v>       0.43750000       0.43750000       0.93750000 </v>
   <v>       0.93750000       0.43750000       0.93750000 </v>
   <v>       0.43750000       0.93750000       0.93750000 </v>
   <v>       0.93750000       0.93750000       0.93750000 </v>
   <v>       0.43750000       0.18750000       0.18750000 </v>
   <v>       0.93750000       0.18750000       0.18750000 </v>
   <v>       0.43750000       0.68750000       0.18750000 </v>
   <v>       0.93750000       0.68750000       0.18750000 </v>
   <v>       0.43750000       0.18750000       0.68750000 </v>
   <v>       0.93750000       0.18750000       0.68750000 </v>
   <v>       0.43750000       0.68750000       0.68750000 </v>
   <v>       0.93750000       0.68750000       0.68750000 </v>
   <v>       0.18750000       0.43750000       0.18750000 </v>
   <v>       0.68750000       0.43750000       0.18750000 </v>
   <v>       0.18750000       0.93750000       0.18750000 </v>
   <v>       0.68750000       0.93750000       0.18750000 </v>
   <v>       0.18750000       0.43750000       0.68750000 </v>
   <v>       0.68750000       0.43750000       0.68750000 </v>
   <v>       0.18750000       0.93750000       0.68750000 </v>
   <v>       0.68750000       0.93750000       0.68750000 </v>
   <v>       0.18750000       0.18750000       0.43750000 </v>
   <v>       0.68750000       0.18750000       0.43750000 </v>
   <v>       0.18750000       0.68750000       0.43750000 </v>
   <v>       0.68750000       0.68750000       0.43750000 </v>
   <v>       0.18750000       0.18750000       0.93750000 </v>
   <v>       0.68750000       0.18750000       0.93750000 </v>
   <v>       0.18750000       0.68750000       0.93750000 </v>
   <v>       0.68750000       0.68750000       0.93750000 </v>
   <v>       0.06250000       0.06250000       0.06250000 </v>
   <v>       0.56250000       0.06250000       0.06250000 </v>
   <v>       0.05975589       0.56250000       0.06250000 </v>
   <v>       0.56250000       0.56250000       0.06250000 </v>
   <v>       0.06250000       0.06250000       0.56250000 </v>
   <v>       0.56250000       0.06250000       0.56250000 </v>
   <v>       0.06250000       0.56250000       0.56250000 </v>
   <v>       0.56250000       0.56250000       0.56250000 </v>
   <v>       0.06250000       0.31250000       0.31250000 </v>
   <v>       0.56250000       0.31250000       0.31250000 </v>
   <v>       0.06250000       0.81250000       0.31250000 </v>
   <v>       0.56250000       0.81250000       0.31250000 </v>
   <v>       0.06250000       0.31250000       0.81250000 </v>
   <v>       0.56250000       0.31250000       0.81250000 </v>
   <v>       0.06250000       0.81250000       0.81250000 </v>
   <v>       0.56250000       0.81250000       0.81250000 </v>
   <v>       0.31250000       0.06250000       0.31250000 </v>
   <v>       0.81250000       0.06250000       0.31250000 </v>
   <v>       0.31250000       0.56250000       0.31250000 </v>
   <v>       0.81250000       0.56250000       0.31250000 </v>
   <v>       0.31250000       0.06250000       0.81250000 </v>
   <v>       0.81250000       0.06250000       0.81250000 </v>
   <v>       0.31250000       0.56250000       0.81250000 </v>
   <v>       0.81250000       0.56250000       0.81250000 </v>
   <v>       0.31250000       0.31250000       0.06250000 </v>
   <v>       0.81250000       0.31250000       0.06250000 </v>
   <v>       0.31250000       0.81250000       0.06250000 </v>
   <v>       0.81250000       0.81250000       0.06250000 </v>
   <v>       0.31250000       0.31250000       0.56250000 </v>
   <v>       0.81250000       0.31250000       0.56250000 </v>
   <v>       0.31250000       0.81250000       0.56250000 </v>
   <v>       0.81250000       0.81250000       0.56250000 </v>
  </varray>
 </structure>
 <calculation>
  <scstep>
   <time name="dav">    4.33    4.33</time>
   <time name="total">    4.53    4.53</time>
   <energy>
    <i name="alphaZ">    105.52440745 </i>
    <i name="ewald">  -7265.46989713 </i>
    <i name="hartreedc">   -361.71374664 </i>
    <i name="XCdc">   -597.75714138 </i>
    <i name="pawpsdc">   5639.92317535 </i>
    <i name="pawaedc">  -4513.95313856 </i>
    <i name="eentropy">     -0.00121188 </i>
    <i name="bandstr">    856.87071955 </i>
    <i name="atom">   6596.14994790 </i>
    <i name="e_fr_energy">    459.57311466 </i>
    <i name="e_wo_entrp">    459.57432654 </i>
    <i name="e_0_energy">    459.57372060 </i>
   </energy>
  </scstep>
  <scstep>
   <time name="dav">    4.96    4.96</time>
   <time name="total">    4.96    4.96</time>
   <energy>
    <i name="e_fr_energy">   -300.07421653 </i>
    <i name="e_wo_entrp">   -300.07421653 </i>
    <i name="e_0_energy">   -300.07421653 </i>
   </energy>
  </scstep>
  <scstep>
   <time name="dav">    5.00    5.00</time>
   <time name="total">    5.00    5.00</time>
   <energy>
    <i name="e_fr_energy">   -350.93629338 </i>
    <i name="e_wo_entrp">   -350.93629338 </i>
    <i name="e_0_energy">   -350.93629338 </i>
   </energy>
  </scstep>
  <scstep>
   <time name="dav">    4.99    4.99</time>
   <time name="total">    4.99    4.99</time>
   <energy>
    <i name="e_fr_energy">   -352.26656934 </i>
    <i name="e_wo_entrp">   -352.26656934 </i>
    <i name="e_0_energy">   -352.26656934 </i>
   </energy>
  </scstep>
  <scstep>
   <time name="dav">    4.95    4.95</time>
   <time name="total">    5.21    5.22</time>
   <energy>
    <i name="e_fr_energy">   -352.31314551 </i>
    <i name="e_wo_entrp">   -352.31314551 </i>
    <i name="e_0_energy">   -352.31314551 </i>
   </energy>
  </scstep>
  <scstep>
   <time name="dav">    4.83    4.83</time>
   <time name="total">    5.28    5.29</time>
   <energy>
    <i name="e_fr_energy">   -348.58446535 </i>
    <i name="e_wo_entrp">   -348.58446535 </i>
    <i name="e_0_energy">   -348.58446535 </i>
   </energy>
  </scstep>
  <scstep>
   <time name="dav">    4.79    4.79</time>
   <time name="total">    5.24    5.24</time>
   <energy>
    <i name="e_fr_energy">   -346.87183212 </i>
    <i name="e_wo_entrp">   -346.87183212 </i>
    <i name="e_0_energy">   -346.87183212 </i>
   </energy>
  </scstep>
  <scstep>
   <time name="dav">    4.89    4.89</time>
   <time name="total">    5.34    5.35</time>
   <energy>
    <i name="e_fr_energy">   -346.89812551 </i>
    <i name="e_wo_entrp">   -346.89812551 </i>
    <i name="e_0_energy">   -346.89812551 </i>
   </energy>
  </scstep>
  <scstep>
   <time name="dav">    5.06    5.06</time>
   <time name="total">    5.50    5.51</time>
   <energy>
    <i name="e_fr_energy">   -346.90485911 </i>
    <i name="e_wo_entrp">   -346.90485911 </i>
    <i name="e_0_energy">   -346.90485911 </i>
   </energy>
  </scstep>
  <scstep>
   <time name="dav">    4.71    4.71</time>
   <time name="total">    5.16    5.18</time>
   <energy>
    <i name="e_fr_energy">   -346.90690299 </i>
    <i name="e_wo_entrp">   -346.90690299 </i>
    <i name="e_0_energy">   -346.90690299 </i>
   </energy>
  </scstep>
  <scstep>
   <time name="dav">    4.99    4.99</time>
   <time name="total">    5.44    5.44</time>
   <energy>
    <i name="e_fr_energy">   -346.90687996 </i>
    <i name="e_wo_entrp">   -346.90687996 </i>
    <i name="e_0_energy">   -346.90687996 </i>
   </energy>
  </scstep>
  <scstep>
   <time name="dav">    4.83    4.82</time>
   <time name="total">    5.27    5.30</time>
   <energy>
    <i name="e_fr_energy">   -346.90689483 </i>
    <i name="e_wo_entrp">   -346.90689483 </i>
    <i name="e_0_energy">   -346.90689483 </i>
   </energy>
  </scstep>
  <scstep>
   <time name="dav">    4.89    4.89</time>
   <time name="total">    5.34    5.34</time>
   <energy>
    <i name="e_fr_energy">   -346.90689526 </i>
    <i name="e_wo_entrp">   -346.90689526 </i>
    <i name="e_0_energy">   -346.90689526 </i>
   </energy>
  </scstep>
  <scstep>
   <time name="dav">    5.00    5.01</time>
   <time name="total">    5.45    5.46</time>
   <energy>
    <i name="e_fr_energy">   -346.90689581 </i>
    <i name="e_wo_entrp">   -346.90689581 </i>
    <i name="e_0_energy">   -346.90689581 </i>
   </energy>
  </scstep>
  <scstep>
   <time name="dav">    4.23    4.23</time>
   <time name="total">    4.68    4.68</time>
   <energy>
    <i name="e_fr_energy">   -346.90689555 </i>
    <i name="e_wo_entrp">   -346.90689555 </i>
    <i name="e_0_energy">   -346.90689555 </i>
   </energy>
  </scstep>
  <scstep>
   <time name="dav">    3.34    3.34</time>
   <time name="total">    3.79    3.80</time>
   <energy>
    <i name="e_fr_energy">   -346.90689564 </i>
    <i name="e_wo_entrp">   -346.90689564 </i>
    <i name="e_0_energy">   -346.90689564 </i>
   </energy>
  </scstep>
  <scstep>
   <time name="dav">    3.34    3.34</time>
   <time name="total">    3.79    3.80</time>
   <energy>
    <i name="e_fr_energy">   -346.90689563 </i>
    <i name="e_wo_entrp">   -346.90689563 </i>
    <i name="e_0_energy">   -346.90689563 </i>
   </energy>
  </scstep>
  <scstep>
   <time name="dav">    3.32    3.33</time>
   <time name="total">    3.77    3.80</time>
   <energy>
    <i name="e_fr_energy">   -346.90689564 </i>
    <i name="e_wo_entrp">   -346.90689564 </i>
    <i name="e_0_energy">   -346.90689564 </i>
   </energy>
  </scstep>
  <scstep>
   <time name="dav">    3.32    3.33</time>
   <time name="total">    3.50    3.51</time>
   <energy>
    <i name="alphaZ">    105.52440745 </i>
    <i name="ewald">  -7265.46989713 </i>
    <i name="hartreedc">   -485.14456120 </i>
    <i name="XCdc">   -577.61228833 </i>
    <i name="pawpsdc">  27883.44282477 </i>
    <i name="pawaedc"> -26764.16075489 </i>
    <i name="eentropy">      0.00000000 </i>
    <i name="bandstr">    160.36342579 </i>
    <i name="atom">   6596.14994790 </i>
    <i name="e_fr_energy">   -346.90689564 </i>
    <i name="e_wo_entrp">   -346.90689564 </i>
    <i name="e_0_energy">   -346.90689564 </i>
   </energy>
  </scstep>
  <structure>
   <crystal>
    <varray name="basis" >
     <v>      10.93252578       0.00000000       0.00000000 </v>
     <v>       0.00000000      10.93252578       0.00000000 </v>
     <v>       0.00000000       0.00000000      10.93252578 </v>
    </varray>
    <i name="volume">   1306.65679237 </i>
    <varray name="rec_basis" >
     <v>       0.09147017       0.00000000       0.00000000 </v>
     <v>       0.00000000       0.09147017       0.00000000 </v>
     <v>       0.00000000       0.00000000       0.09147017 </v>
    </varray>
   </crystal>
   <varray name="positions" >
    <v>       0.44024411       0.43750000       0.43750000 </v>
    <v>       0.93750000       0.43750000       0.43750000 </v>
    <v>       0.43750000       0.93750000       0.43750000 </v>
    <v>       0.93750000       0.93750000       0.43750000 </v>
    <v>       0.43750000       0.43750000       0.93750000 </v>
    <v>       0.93750000       0.43750000       0.93750000 </v>
    <v>       0.43750000       0.93750000       0.93750000 </v>
    <v>       0.93750000       0.93750000       0.93750000 </v>
    <v>       0.43750000       0.18750000       0.18750000 </v>
    <v>       0.93750000       0.18750000       0.18750000 </v>
    <v>       0.43750000       0.68750000       0.18750000 </v>
    <v>       0.93750000       0.68750000       0.18750000 </v>
    <v>       0.43750000       0.18750000       0.68750000 </v>
    <v>       0.93750000       0.18750000       0.68750000 </v>
    <v>       0.43750000       0.68750000       0.68750000 </v>
    <v>       0.93750000       0.68750000       0.68750000 </v>
    <v>       0.18750000       0.43750000       0.18750000 </v>
    <v>       0.68750000       0.43750000       0.18750000 </v>
    <v>       0.18750000       0.93750000       0.18750000 </v>
    <v>       0.68750000       0.93750000       0.18750000 </v>
    <v>       0.18750000       0.43750000       0.68750000 </v>
    <v>       0.68750000       0.43750000       0.68750000 </v>
    <v>       0.18750000       0.93750000       0.68750000 </v>
    <v>       0.68750000       0.93750000       0.68750000 </v>
    <v>       0.18750000       0.18750000       0.43750000 </v>
    <v>       0.68750000       0.18750000       0.43750000 </v>
    <v>       0.18750000       0.68750000       0.43750000 </v>
    <v>       0.68750000       0.68750000       0.43750000 </v>
    <v>       0.18750000       0.18750000       0.93750000 </v>
    <v>       0.68750000       0.18750000       0.93750000 </v>
    <v>       0.18750000       0.68750000       0.93750000 </v>
    <v>       0.68750000       0.68750000       0.93750000 </v>
    <v>       0.06250000       0.06250000       0.06250000 </v>
    <v>       0.56250000       0.06250000       0.06250000 </v>
    <v>       0.05975589       0.56250000       0.06250000 </v>
    <v>       0.56250000       0.56250000       0.06250000 </v>
    <v>       0.06250000       0.06250000       0.56250000 </v>
    <v>       0.56250000       0.06250000       0.56250000 </v>
    <v>       0.06250000       0.56250000       0.56250000 </v>
    <v>       0.56250000       0.56250000       0.56250000 </v>
    <v>       0.06250000       0.31250000       0.31250000 </v>
    <v>       0.56250000       0.31250000       0.31250000 </v>
    <v>       0.06250000       0.81250000       0.31250000 </v>
    <v>       0.56250000       0.81250000       0.31250000 </v>
    <v>       0.06250000       0.31250000       0.81250000 </v>
    <v>       0.56250000       0.31250000       0.81250000 </v>
    <v>       0.06250000       0.81250000       0.81250000 </v>
    <v>       0.56250000       0.81250000       0.81250000 </v>
    <v>       0.31250000       0.06250000       0.31250000 </v>
    <v>       0.81250000       0.06250000       0.31250000 </v>
    <v>       0.31250000       0.56250000       0.31250000 </v>
    <v>       0.81250000       0.56250000       0.31250000 </v>
    <v>       0.31250000       0.06250000       0.81250000 </v>
    <v>       0.81250000       0.06250000       0.81250000 </v>
    <v>       0.31250000       0.56250000       0.81250000 </v>
    <v>       0.81250000       0.56250000       0.81250000 </v>
    <v>       0.31250000       0.31250000       0.06250000 </v>
    <v>       0.81250000       0.31250000       0.06250000 </v>
    <v>       0.31250000       0.81250000       0.06250000 </v>
    <v>       0.81250000       0.81250000       0.06250000 </v>
    <v>       0.31250000       0.31250000       0.56250000 </v>
    <v>       0.81250000       0.31250000       0.56250000 </v>
    <v>       0.31250000       0.81250000       0.56250000 </v>
    <v>       0.81250000       0.81250000       0.56250000 </v>
   </varray>
  </structure>
  <varray name="forces" >
   <v>      -0.38771012      -0.00065663      -0.00056247 </v>
   <v>       0.00202523      -0.00121194      -0.00092550 </v>
   <v>       0.00185190      -0.00075433      -0.00075494 </v>
   <v>      -0.00639277      -0.00068650      -0.00068485 </v>
   <v>       0.00159320      -0.00090987      -0.00091061 </v>
   <v>      -0.09597901      -0.06610613      -0.06611247 </v>
   <v>      -0.01216996      -0.00060236      -0.00065954 </v>
   <v>       0.00205123      -0.00092477      -0.00121244 </v>
   <v>      -0.01349847       0.00337615       0.00343382 </v>
   <v>       0.00144950       0.00115057       0.00143779 </v>
   <v>      -0.01249676       0.00358130      -0.00175641 </v>
   <v>      -0.09579468       0.06634639       0.06588581 </v>
   <v>      -0.01224387      -0.00191075       0.00342204 </v>
   <v>      -0.00621229       0.00045079       0.00092151 </v>
   <v>      -0.01350060      -0.00211621      -0.00217097 </v>
   <v>       0.00145131       0.00098472       0.00069835 </v>
   <v>      -0.08738954       0.05832310      -0.05539364 </v>
   <v>       0.00608122      -0.00186463      -0.00659374 </v>
   <v>       0.00244943       0.00065899      -0.00310851 </v>
   <v>       0.00035871       0.00041055       0.00114171 </v>
   <v>       0.00708272       0.00392176      -0.00644602 </v>
   <v>       0.00514000       0.00347629       0.00505000 </v>
   <v>      -0.00512024       0.00090548       0.00118497 </v>
   <v>       0.00155554       0.00097495      -0.00259316 </v>
   <v>      -0.00048688       0.00488707      -0.00200272 </v>
   <v>       0.00634074      -0.00643738      -0.00201828 </v>
   <v>       0.00707936      -0.00681188       0.00355368 </v>
   <v>       0.00514015       0.00498086       0.00341015 </v>
   <v>       0.00244860      -0.00275164       0.00101389 </v>
   <v>       0.00035899       0.00120822       0.00047892 </v>
   <v>      -0.09206247      -0.05909947       0.06119359 </v>
   <v>       0.00129798      -0.00275126       0.00113401 </v>
   <v>      -0.00185190       0.00075433       0.00075494 </v>
   <v>       0.00639277       0.00068650       0.00068485 </v>
   <v>       0.38771012       0.00065663       0.00056247 </v>
   <v>      -0.00202523       0.00121194       0.00092550 </v>
   <v>       0.01216996       0.00060236       0.00065954 </v>
   <v>      -0.00205123       0.00092477       0.00121244 </v>
   <v>      -0.00159320       0.00090987       0.00091061 </v>
   <v>       0.09597901       0.06610613       0.06611247 </v>
   <v>       0.01249676      -0.00358130       0.00175641 </v>
   <v>       0.09579468      -0.06634639      -0.06588581 </v>
   <v>       0.01349847      -0.00337615      -0.00343382 </v>
   <v>      -0.00144950      -0.00115057      -0.00143779 </v>
   <v>       0.01350060       0.00211621       0.00217097 </v>
   <v>      -0.00145131      -0.00098472      -0.00069835 </v>
   <v>       0.01224387       0.00191075      -0.00342204 </v>
   <v>       0.00621229      -0.00045079      -0.00092151 </v>
   <v>      -0.00244943      -0.00065899       0.00310851 </v>
   <v>      -0.00035871      -0.00041055      -0.00114171 </v>
   <v>       0.08738954      -0.05832310       0.05539364 </v>
   <v>      -0.00608122       0.00186463       0.00659374 </v>
   <v>       0.00512024      -0.00090548      -0.00118497 </v>
   <v>      -0.00155554      -0.00097495       0.00259316 </v>
   <v>      -0.00708272      -0.00392176       0.00644602 </v>
   <v>      -0.00514000      -0.00347629      -0.00505000 </v>
   <v>      -0.00707936       0.00681188      -0.00355368 </v>
   <v>      -0.00514015      -0.00498086      -0.00341015 </v>
   <v>       0.00048688      -0.00488707       0.00200272 </v>
   <v>      -0.00634074       0.00643738       0.00201828 </v>
   <v>       0.09206247       0.05909947      -0.06119359 </v>
   <v>      -0.00129798       0.00275126      -0.00113401 </v>
   <v>      -0.00244860       0.00275164      -0.00101389 </v>
   <v>      -0.00035899      -0.00120822      -0.00047892 </v>
  </varray>
  <varray name="stress" >
   <v>      -0.01746533      -0.00012586       0.00019234 </v>
   <v>      -0.00012591       0.02070236       0.66955877 </v>
   <v>       0.00019234       0.66955876       0.02102332 </v>
  </varray>
  <energy>
   <i name="e_fr_energy">   -346.90689564 </i>
   <i name="e_wo_entrp">   -346.90689564 </i>
   <i name="e_0_energy">      0.00000000 </i>
  </energy>
  <time name="totalsc">  102.41  102.60</time>
  <eigenvalues>
   <array>
    <dimension dim="1">band</dimension>
    <dimension dim="2">kpoint</dimension>
    <dimension dim="3">spin</dimension>
    <field>eigene</field>
    <field>occ</field>
    <set>
     <set comment="spin 1">
      <set comment="kpoint 1">
       <r>   -5.9931    1.0000 </r>
       <r>   -5.4679    1.0000 </r>
       <r>   -5.4650    1.0000 </r>
       <r>   -5.4618    1.0000 </r>
       <r>   -4.9682    1.0000 </r>
       <r>   -4.9658    1.0000 </r>
       <r>   -4.9624    1.0000 </r>
       <r>   -4.5311    1.0000 </r>
       <r>   -4.4354    1.0000 </r>
       <r>   -4.4321    1.0000 </r>
       <r>   -4.4290    1.0000 </r>
       <r>   -4.0262    1.0000 </r>
       <r>   -4.0210    1.0000 </r>
       <r>   -4.0167    1.0000 </r>
       <r>   -4.0148    1.0000 </r>
       <r>   -4.0116    1.0000 </r>
       <r>   -4.0110    1.0000 </r>
       <r>   -3.8309    1.0000 </r>
       <r>   -3.8225    1.0000 </r>
       <r>   -3.8215    1.0000 </r>
       <r>   -3.3301    1.0000 </r>
       <r>   -3.3271    1.0000 </r>
       <r>   -3.3227    1.0000 </r>
       <r>   -2.9637    1.0000 </r>
       <r>   -2.9585    1.0000 </r>
       <r>   -2.9565    1.0000 </r>
       <r>   -2.8003    1.0000 </r>
       <r>   -2.7946    1.0000 </r>
       <r>   -2.7913    1.0000 </r>
       <r>   -2.7889    1.0000 </r>
       <r>   -2.7866    1.0000 </r>
       <r>   -2.7849    1.0000 </r>
       <r>   -1.2554    1.0000 </r>
       <r>   -1.2533    1.0000 </r>
       <r>   -1.2488    1.0000 </r>
       <r>   -1.2460    1.0000 </r>
       <r>   -1.2455    1.0000 </r>
       <r>   -1.2419    1.0000 </r>
       <r>   -1.1516    1.0000 </r>
       <r>   -1.1514    1.0000 </r>
       <r>   -1.1474    1.0000 </r>
       <r>   -1.0369    1.0000 </r>
       <r>   -1.0311    1.0000 </r>
       <r>   -1.0250    1.0000 </r>
       <r>   -0.9559    1.0000 </r>
       <r>   -0.9500    1.0000 </r>
       <r>   -0.9464    1.0000 </r>
       <r>   -0.2481    1.0000 </r>
       <r>   -0.1647    1.0000 </r>
       <r>   -0.1638    1.0000 </r>
       <r>   -0.1603    1.0000 </r>
       <r>   -0.1575    1.0000 </r>
       <r>   -0.1549    1.0000 </r>
       <r>   -0.1509    1.0000 </r>
       <r>    0.7100    1.0000 </r>
       <r>    0.7111    1.0000 </r>
       <r>    0.7149    1.0000 </r>
       <r>    1.0419    1.0000 </r>
       <r>    1.0495    1.0000 </r>
       <r>    1.0499    1.0000 </r>
       <r>    1.6510    1.0000 </r>
       <r>    1.6559    1.0000 </r>
       <r>    1.6571    1.0000 </r>
       <r>    1.6579    1.0000 </r>
       <r>    1.6598    1.0000 </r>
       <r>    1.6602    1.0000 </r>
       <r>    1.7142    1.0000 </r>
       <r>    1.7185    1.0000 </r>
       <r>    1.7195    1.0000 </r>
       <r>    2.2633    1.0000 </r>
       <r>    2.2667    1.0000 </r>
       <r>    2.2676    1.0000 </r>
       <r>    2.3675    1.0000 </r>
       <r>    2.3697    1.0000 </r>
       <r>    2.3708    1.0000 </r>
       <r>    2.3713    1.0000 </r>
       <r>    2.3751    1.0000 </r>
       <r>    2.3771    1.0000 </r>
       <r>    2.4226    1.0000 </r>
       <r>    2.4295    1.0000 </r>
       <r>    2.4301    1.0000 </r>
       <r>    2.7300    1.0000 </r>
       <r>    2.7311    1.0000 </r>
       <r>    2.7347    1.0000 </r>
       <r>    2.7354    1.0000 </r>
       <r>    2.7371    1.0000 </r>
       <r>    2.7404    1.0000 </r>
       <r>    2.9979    1.0000 </r>
       <r>    2.9999    1.0000 </r>
       <r>    3.0031    1.0000 </r>
       <r>    3.0095    1.0000 </r>
       <r>    3.0170    1.0000 </r>
       <r>    3.0178    1.0000 </r>
       <r>    3.3578    1.0000 </r>
       <r>    3.3597    1.0000 </r>
       <r>    3.3626    1.0000 </r>
       <r>    3.3767    1.0000 </r>
       <r>    3.3826    1.0000 </r>
       <r>    3.3850    1.0000 </r>
       <r>    3.4657    1.0000 </r>
       <r>    3.4665    1.0000 </r>
       <r>    3.4709    1.0000 </r>
       <r>    3.7281    1.0000 </r>
       <r>    3.7384    1.0000 </r>
       <r>    3.7396    1.0000 </r>
       <r>    3.7409    1.0000 </r>
       <r>    3.7420    1.0000 </r>
       <r>    3.7431    1.0000 </r>
       <r>    3.7798    1.0000 </r>
       <r>    3.7806    1.0000 </r>
       <r>    3.7857    1.0000 </r>
       <r>    4.0364    1.0000 </r>
       <r>    4.0979    1.0000 </r>
       <r>    4.0984    1.0000 </r>
       <r>    4.1045    1.0000 </r>
       <r>    4.3404    1.0000 </r>
       <r>    4.3415    1.0000 </r>
       <r>    4.3466    1.0000 </r>
       <r>    4.3983    1.0000 </r>
       <r>    4.4009    1.0000 </r>
       <r>    4.4048    1.0000 </r>
       <r>    4.5594    1.0000 </r>
       <r>    4.5688    1.0000 </r>
       <r>    4.8694    1.0000 </r>
       <r>    4.8707    1.0000 </r>
       <r>    4.8780    1.0000 </r>
       <r>    5.3466    1.0000 </r>
       <r>    5.3574    1.0000 </r>
       <r>    6.5600    0.0000 </r>
       <r>    6.5670    0.0000 </r>
       <r>    6.5680    0.0000 </r>
       <r>    7.0027    0.0000 </r>
       <r>    7.0040    0.0000 </r>
       <r>    7.0088    0.0000 </r>
       <r>    7.2352    0.0000 </r>
       <r>    7.4899    0.0000 </r>
       <r>    7.4905    0.0000 </r>
       <r>    7.4964    0.0000 </r>
       <r>    7.6155    0.0000 </r>
       <r>    7.6158    0.0000 </r>
       <r>    7.6234    0.0000 </r>
       <r>    7.7778    0.0000 </r>
       <r>    7.7795    0.0000 </r>
       <r>    7.7832    0.0000 </r>
       <r>    7.7981    0.0000 </r>
       <r>    7.8010    0.0000 </r>
       <r>    7.8067    0.0000 </r>
       <r>    8.0248    0.0000 </r>
       <r>    8.0255    0.0000 </r>
       <r>    8.0263    0.0000 </r>
       <r>    8.0304    0.0000 </r>
       <r>    8.0307    0.0000 </r>
       <r>    8.0352    0.0000 </r>
       <r>    8.0836    0.0000 </r>
       <r>    8.2932    0.0000 </r>
       <r>    8.2940    0.0000 </r>
       <r>    8.2984    0.0000 </r>
       <r>    8.4959    0.0000 </r>
       <r>    8.4968    0.0000 </r>
       <r>    8.5014    0.0000 </r>
       <r>    8.5037    0.0000 </r>
       <r>    8.5090    0.0000 </r>
       <r>    8.5190    0.0000 </r>
       <r>    8.5500    0.0000 </r>
      </set>
      <set comment="kpoint 2">
       <r>   -5.9931    1.0000 </r>
       <r>   -5.4679    1.0000 </r>
       <r>   -5.4650    1.0000 </r>
       <r>   -5.4618    1.0000 </r>
       <r>   -4.9682    1.0000 </r>
       <r>   -4.9658    1.0000 </r>
       <r>   -4.9624    1.0000 </r>
       <r>   -4.5313    1.0000 </r>
       <r>   -4.4354    1.0000 </r>
       <r>   -4.4321    1.0000 </r>
       <r>   -4.4287    1.0000 </r>
       <r>   -4.0257    1.0000 </r>
       <r>   -4.0201    1.0000 </r>
       <r>   -4.0158    1.0000 </r>
       <r>   -4.0137    1.0000 </r>
       <r>   -4.0131    1.0000 </r>
       <r>   -4.0130    1.0000 </r>
       <r>   -3.8315    1.0000 </r>
       <r>   -3.8220    1.0000 </r>
       <r>   -3.8215    1.0000 </r>
       <r>   -3.3301    1.0000 </r>
       <r>   -3.3271    1.0000 </r>
       <r>   -3.3226    1.0000 </r>
       <r>   -2.9664    1.0000 </r>
       <r>   -2.9565    1.0000 </r>
       <r>   -2.9556    1.0000 </r>
       <r>   -2.8002    1.0000 </r>
       <r>   -2.7940    1.0000 </r>
       <r>   -2.7902    1.0000 </r>
       <r>   -2.7882    1.0000 </r>
       <r>   -2.7874    1.0000 </r>
       <r>   -2.7868    1.0000 </r>
       <r>   -1.2557    1.0000 </r>
       <r>   -1.2541    1.0000 </r>
       <r>   -1.2475    1.0000 </r>
       <r>   -1.2472    1.0000 </r>
       <r>   -1.2433    1.0000 </r>
       <r>   -1.2428    1.0000 </r>
       <r>   -1.1573    1.0000 </r>
       <r>   -1.1473    1.0000 </r>
       <r>   -1.1463    1.0000 </r>
       <r>   -1.0373    1.0000 </r>
       <r>   -1.0311    1.0000 </r>
       <r>   -1.0244    1.0000 </r>
       <r>   -0.9558    1.0000 </r>
       <r>   -0.9501    1.0000 </r>
       <r>   -0.9464    1.0000 </r>
       <r>   -0.2482    1.0000 </r>
       <r>   -0.1658    1.0000 </r>
       <r>   -0.1658    1.0000 </r>
       <r>   -0.1595    1.0000 </r>
       <r>   -0.1580    1.0000 </r>
       <r>   -0.1530    1.0000 </r>
       <r>   -0.1501    1.0000 </r>
       <r>    0.7100    1.0000 </r>
       <r>    0.7111    1.0000 </r>
       <r>    0.7149    1.0000 </r>
       <r>    1.0419    1.0000 </r>
       <r>    1.0496    1.0000 </r>
       <r>    1.0499    1.0000 </r>
       <r>    1.6512    1.0000 </r>
       <r>    1.6556    1.0000 </r>
       <r>    1.6567    1.0000 </r>
       <r>    1.6573    1.0000 </r>
       <r>    1.6601    1.0000 </r>
       <r>    1.6614    1.0000 </r>
       <r>    1.7141    1.0000 </r>
       <r>    1.7181    1.0000 </r>
       <r>    1.7192    1.0000 </r>
       <r>    2.2625    1.0000 </r>
       <r>    2.2675    1.0000 </r>
       <r>    2.2676    1.0000 </r>
       <r>    2.3666    1.0000 </r>
       <r>    2.3683    1.0000 </r>
       <r>    2.3698    1.0000 </r>
       <r>    2.3726    1.0000 </r>
       <r>    2.3771    1.0000 </r>
       <r>    2.3786    1.0000 </r>
       <r>    2.4226    1.0000 </r>
       <r>    2.4289    1.0000 </r>
       <r>    2.4297    1.0000 </r>
       <r>    2.7302    1.0000 </r>
       <r>    2.7311    1.0000 </r>
       <r>    2.7343    1.0000 </r>
       <r>    2.7357    1.0000 </r>
       <r>    2.7370    1.0000 </r>
       <r>    2.7406    1.0000 </r>
       <r>    2.9979    1.0000 </r>
       <r>    3.0009    1.0000 </r>
       <r>    3.0021    1.0000 </r>
       <r>    3.0096    1.0000 </r>
       <r>    3.0171    1.0000 </r>
       <r>    3.0175    1.0000 </r>
       <r>    3.3582    1.0000 </r>
       <r>    3.3592    1.0000 </r>
       <r>    3.3624    1.0000 </r>
       <r>    3.3761    1.0000 </r>
       <r>    3.3834    1.0000 </r>
       <r>    3.3851    1.0000 </r>
       <r>    3.4659    1.0000 </r>
       <r>    3.4664    1.0000 </r>
       <r>    3.4710    1.0000 </r>
       <r>    3.7280    1.0000 </r>
       <r>    3.7378    1.0000 </r>
       <r>    3.7388    1.0000 </r>
       <r>    3.7412    1.0000 </r>
       <r>    3.7429    1.0000 </r>
       <r>    3.7434    1.0000 </r>
       <r>    3.7798    1.0000 </r>
       <r>    3.7805    1.0000 </r>
       <r>    3.7854    1.0000 </r>
       <r>    4.0364    1.0000 </r>
       <r>    4.0979    1.0000 </r>
       <r>    4.1001    1.0000 </r>
       <r>    4.1027    1.0000 </r>
       <r>    4.3405    1.0000 </r>
       <r>    4.3413    1.0000 </r>
       <r>    4.3471    1.0000 </r>
       <r>    4.3983    1.0000 </r>
       <r>    4.4009    1.0000 </r>
       <r>    4.4048    1.0000 </r>
       <r>    4.5594    1.0000 </r>
       <r>    4.5686    1.0000 </r>
       <r>    4.8694    1.0000 </r>
       <r>    4.8707    1.0000 </r>
       <r>    4.8779    1.0000 </r>
       <r>    5.3466    1.0000 </r>
       <r>    5.3574    1.0000 </r>
       <r>    6.5599    0.0000 </r>
       <r>    6.5670    0.0000 </r>
       <r>    6.5680    0.0000 </r>
       <r>    7.0027    0.0000 </r>
       <r>    7.0041    0.0000 </r>
       <r>    7.0089    0.0000 </r>
       <r>    7.2351    0.0000 </r>
       <r>    7.4899    0.0000 </r>
       <r>    7.4906    0.0000 </r>
       <r>    7.4963    0.0000 </r>
       <r>    7.6144    0.0000 </r>
       <r>    7.6159    0.0000 </r>
       <r>    7.6244    0.0000 </r>
       <r>    7.7780    0.0000 </r>
       <r>    7.7796    0.0000 </r>
       <r>    7.7828    0.0000 </r>
       <r>    7.7980    0.0000 </r>
       <r>    7.8031    0.0000 </r>
       <r>    7.8051    0.0000 </r>
       <r>    8.0233    0.0000 </r>
       <r>    8.0245    0.0000 </r>
       <r>    8.0275    0.0000 </r>
       <r>    8.0302    0.0000 </r>
       <r>    8.0321    0.0000 </r>
       <r>    8.0348    0.0000 </r>
       <r>    8.0838    0.0000 </r>
       <r>    8.2932    0.0000 </r>
       <r>    8.2940    0.0000 </r>
       <r>    8.2984    0.0000 </r>
       <r>    8.4955    0.0000 </r>
       <r>    8.4973    0.0000 </r>
       <r>    8.5009    0.0000 </r>
       <r>    8.5030    0.0000 </r>
       <r>    8.5101    0.0000 </r>
       <r>    8.5229    0.0000 </r>
       <r>    8.5387    0.0000 </r>
      </set>
      <set comment="kpoint 3">
       <r>   -5.9932    1.0000 </r>
       <r>   -5.4671    1.0000 </r>
       <r>   -5.4646    1.0000 </r>
       <r>   -5.4623    1.0000 </r>
       <r>   -4.9680    1.0000 </r>
       <r>   -4.9653    1.0000 </r>
       <r>   -4.9633    1.0000 </r>
       <r>   -4.5332    1.0000 </r>
       <r>   -4.4350    1.0000 </r>
       <r>   -4.4327    1.0000 </r>
       <r>   -4.4308    1.0000 </r>
       <r>   -4.0209    1.0000 </r>
       <r>   -4.0193    1.0000 </r>
       <r>   -4.0169    1.0000 </r>
       <r>   -4.0165    1.0000 </r>
       <r>   -4.0135    1.0000 </r>
       <r>   -4.0089    1.0000 </r>
       <r>   -3.8268    1.0000 </r>
       <r>   -3.8222    1.0000 </r>
       <r>   -3.8217    1.0000 </r>
       <r>   -3.3327    1.0000 </r>
       <r>   -3.3294    1.0000 </r>
       <r>   -3.3283    1.0000 </r>
       <r>   -2.9623    1.0000 </r>
       <r>   -2.9586    1.0000 </r>
       <r>   -2.9558    1.0000 </r>
       <r>   -2.7951    1.0000 </r>
       <r>   -2.7944    1.0000 </r>
       <r>   -2.7915    1.0000 </r>
       <r>   -2.7908    1.0000 </r>
       <r>   -2.7891    1.0000 </r>
       <r>   -2.7822    1.0000 </r>
       <r>   -1.2563    1.0000 </r>
       <r>   -1.2541    1.0000 </r>
       <r>   -1.2492    1.0000 </r>
       <r>   -1.2487    1.0000 </r>
       <r>   -1.2486    1.0000 </r>
       <r>   -1.2389    1.0000 </r>
       <r>   -1.1559    1.0000 </r>
       <r>   -1.1528    1.0000 </r>
       <r>   -1.1473    1.0000 </r>
       <r>   -1.0375    1.0000 </r>
       <r>   -1.0371    1.0000 </r>
       <r>   -1.0281    1.0000 </r>
       <r>   -0.9476    1.0000 </r>
       <r>   -0.9460    1.0000 </r>
       <r>   -0.9343    1.0000 </r>
       <r>   -0.2410    1.0000 </r>
       <r>   -0.1699    1.0000 </r>
       <r>   -0.1669    1.0000 </r>
       <r>   -0.1615    1.0000 </r>
       <r>   -0.1603    1.0000 </r>
       <r>   -0.1595    1.0000 </r>
       <r>   -0.1512    1.0000 </r>
       <r>    0.7125    1.0000 </r>
       <r>    0.7149    1.0000 </r>
       <r>    0.7224    1.0000 </r>
       <r>    1.0437    1.0000 </r>
       <r>    1.0454    1.0000 </r>
       <r>    1.0520    1.0000 </r>
       <r>    1.6522    1.0000 </r>
       <r>    1.6544    1.0000 </r>
       <r>    1.6557    1.0000 </r>
       <r>    1.6573    1.0000 </r>
       <r>    1.6599    1.0000 </r>
       <r>    1.6611    1.0000 </r>
       <r>    1.7126    1.0000 </r>
       <r>    1.7138    1.0000 </r>
       <r>    1.7190    1.0000 </r>
       <r>    2.2675    1.0000 </r>
       <r>    2.2689    1.0000 </r>
       <r>    2.2722    1.0000 </r>
       <r>    2.3644    1.0000 </r>
       <r>    2.3660    1.0000 </r>
       <r>    2.3695    1.0000 </r>
       <r>    2.3705    1.0000 </r>
       <r>    2.3728    1.0000 </r>
       <r>    2.3738    1.0000 </r>
       <r>    2.4200    1.0000 </r>
       <r>    2.4220    1.0000 </r>
       <r>    2.4274    1.0000 </r>
       <r>    2.7303    1.0000 </r>
       <r>    2.7323    1.0000 </r>
       <r>    2.7338    1.0000 </r>
       <r>    2.7350    1.0000 </r>
       <r>    2.7365    1.0000 </r>
       <r>    2.7425    1.0000 </r>
       <r>    2.9948    1.0000 </r>
       <r>    2.9993    1.0000 </r>
       <r>    2.9999    1.0000 </r>
       <r>    3.0099    1.0000 </r>
       <r>    3.0106    1.0000 </r>
       <r>    3.0169    1.0000 </r>
       <r>    3.3611    1.0000 </r>
       <r>    3.3630    1.0000 </r>
       <r>    3.3672    1.0000 </r>
       <r>    3.3849    1.0000 </r>
       <r>    3.3876    1.0000 </r>
       <r>    3.3897    1.0000 </r>
       <r>    3.4619    1.0000 </r>
       <r>    3.4660    1.0000 </r>
       <r>    3.4688    1.0000 </r>
       <r>    3.7399    1.0000 </r>
       <r>    3.7406    1.0000 </r>
       <r>    3.7409    1.0000 </r>
       <r>    3.7438    1.0000 </r>
       <r>    3.7482    1.0000 </r>
       <r>    3.7498    1.0000 </r>
       <r>    3.7751    1.0000 </r>
       <r>    3.7800    1.0000 </r>
       <r>    3.7834    1.0000 </r>
       <r>    4.0443    1.0000 </r>
       <r>    4.0921    1.0000 </r>
       <r>    4.0972    1.0000 </r>
       <r>    4.0981    1.0000 </r>
       <r>    4.3350    1.0000 </r>
       <r>    4.3402    1.0000 </r>
       <r>    4.3420    1.0000 </r>
       <r>    4.4062    1.0000 </r>
       <r>    4.4081    1.0000 </r>
       <r>    4.4172    1.0000 </r>
       <r>    4.5569    1.0000 </r>
       <r>    4.5665    1.0000 </r>
       <r>    4.8618    1.0000 </r>
       <r>    4.8690    1.0000 </r>
       <r>    4.8716    1.0000 </r>
       <r>    5.3421    1.0000 </r>
       <r>    5.3527    1.0000 </r>
       <r>    6.5590    0.0000 </r>
       <r>    6.5631    0.0000 </r>
       <r>    6.5632    0.0000 </r>
       <r>    6.9980    0.0000 </r>
       <r>    7.0049    0.0000 </r>
       <r>    7.0081    0.0000 </r>
       <r>    7.2323    0.0000 </r>
       <r>    7.4842    0.0000 </r>
       <r>    7.4897    0.0000 </r>
       <r>    7.4935    0.0000 </r>
       <r>    7.6186    0.0000 </r>
       <r>    7.6195    0.0000 </r>
       <r>    7.6245    0.0000 </r>
       <r>    7.7766    0.0000 </r>
       <r>    7.7791    0.0000 </r>
       <r>    7.7822    0.0000 </r>
       <r>    7.7972    0.0000 </r>
       <r>    7.8020    0.0000 </r>
       <r>    7.8026    0.0000 </r>
       <r>    8.0269    0.0000 </r>
       <r>    8.0296    0.0000 </r>
       <r>    8.0307    0.0000 </r>
       <r>    8.0325    0.0000 </r>
       <r>    8.0336    0.0000 </r>
       <r>    8.0399    0.0000 </r>
       <r>    8.0792    0.0000 </r>
       <r>    8.2908    0.0000 </r>
       <r>    8.2961    0.0000 </r>
       <r>    8.2975    0.0000 </r>
       <r>    8.4955    0.0000 </r>
       <r>    8.4999    0.0000 </r>
       <r>    8.5020    0.0000 </r>
       <r>    8.5033    0.0000 </r>
       <r>    8.5104    0.0000 </r>
       <r>    8.5173    0.0000 </r>
       <r>    8.5425    0.0000 </r>
      </set>
      <set comment="kpoint 4">
       <r>   -5.9932    1.0000 </r>
       <r>   -5.4680    1.0000 </r>
       <r>   -5.4656    1.0000 </r>
       <r>   -5.4604    1.0000 </r>
       <r>   -4.9690    1.0000 </r>
       <r>   -4.9664    1.0000 </r>
       <r>   -4.9613    1.0000 </r>
       <r>   -4.5333    1.0000 </r>
       <r>   -4.4363    1.0000 </r>
       <r>   -4.4336    1.0000 </r>
       <r>   -4.4284    1.0000 </r>
       <r>   -4.0216    1.0000 </r>
       <r>   -4.0201    1.0000 </r>
       <r>   -4.0177    1.0000 </r>
       <r>   -4.0165    1.0000 </r>
       <r>   -4.0119    1.0000 </r>
       <r>   -4.0082    1.0000 </r>
       <r>   -3.8268    1.0000 </r>
       <r>   -3.8223    1.0000 </r>
       <r>   -3.8217    1.0000 </r>
       <r>   -3.3350    1.0000 </r>
       <r>   -3.3300    1.0000 </r>
       <r>   -3.3253    1.0000 </r>
       <r>   -2.9624    1.0000 </r>
       <r>   -2.9585    1.0000 </r>
       <r>   -2.9558    1.0000 </r>
       <r>   -2.7956    1.0000 </r>
       <r>   -2.7945    1.0000 </r>
       <r>   -2.7926    1.0000 </r>
       <r>   -2.7917    1.0000 </r>
       <r>   -2.7874    1.0000 </r>
       <r>   -2.7814    1.0000 </r>
       <r>   -1.2554    1.0000 </r>
       <r>   -1.2531    1.0000 </r>
       <r>   -1.2515    1.0000 </r>
       <r>   -1.2502    1.0000 </r>
       <r>   -1.2469    1.0000 </r>
       <r>   -1.2391    1.0000 </r>
       <r>   -1.1557    1.0000 </r>
       <r>   -1.1530    1.0000 </r>
       <r>   -1.1471    1.0000 </r>
       <r>   -1.0375    1.0000 </r>
       <r>   -1.0371    1.0000 </r>
       <r>   -1.0280    1.0000 </r>
       <r>   -0.9483    1.0000 </r>
       <r>   -0.9415    1.0000 </r>
       <r>   -0.9383    1.0000 </r>
       <r>   -0.2411    1.0000 </r>
       <r>   -0.1679    1.0000 </r>
       <r>   -0.1661    1.0000 </r>
       <r>   -0.1638    1.0000 </r>
       <r>   -0.1619    1.0000 </r>
       <r>   -0.1582    1.0000 </r>
       <r>   -0.1512    1.0000 </r>
       <r>    0.7125    1.0000 </r>
       <r>    0.7147    1.0000 </r>
       <r>    0.7225    1.0000 </r>
       <r>    1.0438    1.0000 </r>
       <r>    1.0450    1.0000 </r>
       <r>    1.0524    1.0000 </r>
       <r>    1.6523    1.0000 </r>
       <r>    1.6546    1.0000 </r>
       <r>    1.6558    1.0000 </r>
       <r>    1.6568    1.0000 </r>
       <r>    1.6598    1.0000 </r>
       <r>    1.6610    1.0000 </r>
       <r>    1.7131    1.0000 </r>
       <r>    1.7140    1.0000 </r>
       <r>    1.7183    1.0000 </r>
       <r>    2.2676    1.0000 </r>
       <r>    2.2688    1.0000 </r>
       <r>    2.2722    1.0000 </r>
       <r>    2.3648    1.0000 </r>
       <r>    2.3652    1.0000 </r>
       <r>    2.3695    1.0000 </r>
       <r>    2.3712    1.0000 </r>
       <r>    2.3724    1.0000 </r>
       <r>    2.3737    1.0000 </r>
       <r>    2.4201    1.0000 </r>
       <r>    2.4222    1.0000 </r>
       <r>    2.4272    1.0000 </r>
       <r>    2.7300    1.0000 </r>
       <r>    2.7315    1.0000 </r>
       <r>    2.7347    1.0000 </r>
       <r>    2.7350    1.0000 </r>
       <r>    2.7367    1.0000 </r>
       <r>    2.7426    1.0000 </r>
       <r>    2.9952    1.0000 </r>
       <r>    2.9990    1.0000 </r>
       <r>    2.9997    1.0000 </r>
       <r>    3.0097    1.0000 </r>
       <r>    3.0104    1.0000 </r>
       <r>    3.0174    1.0000 </r>
       <r>    3.3615    1.0000 </r>
       <r>    3.3623    1.0000 </r>
       <r>    3.3673    1.0000 </r>
       <r>    3.3847    1.0000 </r>
       <r>    3.3876    1.0000 </r>
       <r>    3.3902    1.0000 </r>
       <r>    3.4618    1.0000 </r>
       <r>    3.4659    1.0000 </r>
       <r>    3.4688    1.0000 </r>
       <r>    3.7391    1.0000 </r>
       <r>    3.7405    1.0000 </r>
       <r>    3.7419    1.0000 </r>
       <r>    3.7445    1.0000 </r>
       <r>    3.7475    1.0000 </r>
       <r>    3.7496    1.0000 </r>
       <r>    3.7755    1.0000 </r>
       <r>    3.7798    1.0000 </r>
       <r>    3.7834    1.0000 </r>
       <r>    4.0443    1.0000 </r>
       <r>    4.0921    1.0000 </r>
       <r>    4.0972    1.0000 </r>
       <r>    4.0981    1.0000 </r>
       <r>    4.3353    1.0000 </r>
       <r>    4.3399    1.0000 </r>
       <r>    4.3421    1.0000 </r>
       <r>    4.4061    1.0000 </r>
       <r>    4.4095    1.0000 </r>
       <r>    4.4159    1.0000 </r>
       <r>    4.5569    1.0000 </r>
       <r>    4.5666    1.0000 </r>
       <r>    4.8624    1.0000 </r>
       <r>    4.8683    1.0000 </r>
       <r>    4.8717    1.0000 </r>
       <r>    5.3421    1.0000 </r>
       <r>    5.3527    1.0000 </r>
       <r>    6.5590    0.0000 </r>
       <r>    6.5632    0.0000 </r>
       <r>    6.5632    0.0000 </r>
       <r>    7.0007    0.0000 </r>
       <r>    7.0020    0.0000 </r>
       <r>    7.0084    0.0000 </r>
       <r>    7.2323    0.0000 </r>
       <r>    7.4853    0.0000 </r>
       <r>    7.4885    0.0000 </r>
       <r>    7.4936    0.0000 </r>
       <r>    7.6186    0.0000 </r>
       <r>    7.6195    0.0000 </r>
       <r>    7.6245    0.0000 </r>
       <r>    7.7753    0.0000 </r>
       <r>    7.7808    0.0000 </r>
       <r>    7.7823    0.0000 </r>
       <r>    7.7974    0.0000 </r>
       <r>    7.8015    0.0000 </r>
       <r>    7.8024    0.0000 </r>
       <r>    8.0256    0.0000 </r>
       <r>    8.0288    0.0000 </r>
       <r>    8.0306    0.0000 </r>
       <r>    8.0334    0.0000 </r>
       <r>    8.0348    0.0000 </r>
       <r>    8.0398    0.0000 </r>
       <r>    8.0793    0.0000 </r>
       <r>    8.2921    0.0000 </r>
       <r>    8.2945    0.0000 </r>
       <r>    8.2977    0.0000 </r>
       <r>    8.4941    0.0000 </r>
       <r>    8.4993    0.0000 </r>
       <r>    8.5033    0.0000 </r>
       <r>    8.5055    0.0000 </r>
       <r>    8.5095    0.0000 </r>
       <r>    8.5128    0.0000 </r>
       <r>    8.5417    0.0000 </r>
      </set>
     </set>
    </set>
   </array>
  </eigenvalues>
  <separator name="orbital magnetization" >
   <v name="MAGDIPOLOUT">      0.00000000      0.00000000      0.00000000</v>
  </separator>
  <dos>
   <i name="efermi">      5.60107792 </i>
   <total>
    <array>
     <dimension dim="1">gridpoints</dimension>
     <dimension dim="2">spin</dimension>
     <field>energy</field>
     <field>total</field>
     <field>integrated</field>
     <set>
      <set comment="spin 1">
       <r>    -6.7204     0.0000     0.0000 </r>
       <r>    -6.6671     0.0000     0.0000 </r>
       <r>    -6.6138     0.0000     0.0000 </r>
       <r>    -6.5604     0.0000     0.0000 </r>
       <r>    -6.5071     0.0000     0.0000 </r>
       <r>    -6.4538     0.0000     0.0000 </r>
       <r>    -6.4005     0.0000     0.0000 </r>
       <r>    -6.3471     0.0000     0.0000 </r>
       <r>    -6.2938     0.0000     0.0000 </r>
       <r>    -6.2405     0.0000     0.0000 </r>
       <r>    -6.1872     0.0000     0.0000 </r>
       <r>    -6.1338     0.0013     0.0001 </r>
       <r>    -6.0805     0.2522     0.0135 </r>
       <r>    -6.0272     6.0521     0.3362 </r>
       <r>    -5.9739    20.2369     1.4154 </r>
       <r>    -5.9205    10.2152     1.9601 </r>
       <r>    -5.8672     0.7411     1.9996 </r>
       <r>    -5.8139     0.0069     2.0000 </r>
       <r>    -5.7605     0.0000     2.0000 </r>
       <r>    -5.7072     0.0000     2.0000 </r>
       <r>    -5.6539     0.0000     2.0000 </r>
       <r>    -5.6006     0.0072     2.0004 </r>
       <r>    -5.5472     1.1167     2.0599 </r>
       <r>    -5.4939    21.9915     3.2326 </r>
       <r>    -5.4406    61.5397     6.5143 </r>
       <r>    -5.3873    26.2418     7.9136 </r>
       <r>    -5.3339     1.6074     7.9993 </r>
       <r>    -5.2806     0.0126     8.0000 </r>
       <r>    -5.2273     0.0000     8.0000 </r>
       <r>    -5.1740     0.0000     8.0000 </r>
       <r>    -5.1206     0.0007     8.0000 </r>
       <r>    -5.0673     0.2285     8.0122 </r>
       <r>    -5.0140     9.4126     8.5142 </r>
       <r>    -4.9607    52.7349    11.3263 </r>
       <r>    -4.9073    44.4713    13.6977 </r>
       <r>    -4.8540     5.5756    13.9950 </r>
       <r>    -4.8007     0.0931    14.0000 </r>
       <r>    -4.7474     0.0002    14.0000 </r>
       <r>    -4.6940     0.0001    14.0000 </r>
       <r>    -4.6407     0.0404    14.0022 </r>
       <r>    -4.5874     2.1889    14.1189 </r>
       <r>    -4.5341    15.9801    14.9710 </r>
       <r>    -4.4807    26.3132    16.3742 </r>
       <r>    -4.4274    55.5413    19.3359 </r>
       <r>    -4.3741    44.3465    21.7007 </r>
       <r>    -4.3208     5.5201    21.9951 </r>
       <r>    -4.2674     0.0917    22.0000 </r>
       <r>    -4.2141     0.0002    22.0000 </r>
       <r>    -4.1608     0.0059    22.0003 </r>
       <r>    -4.1075     1.2013    22.0644 </r>
       <r>    -4.0541    31.4937    23.7438 </r>
       <r>    -4.0008   117.9416    30.0331 </r>
       <r>    -3.9475    68.4435    33.6828 </r>
       <r>    -3.8942     8.6568    34.1445 </r>
       <r>    -3.8408    33.3828    35.9246 </r>
       <r>    -3.7875    59.5149    39.0983 </r>
       <r>    -3.7342    16.2809    39.9664 </r>
       <r>    -3.6809     0.6264    39.9998 </r>
       <r>    -3.6275     0.0030    40.0000 </r>
       <r>    -3.5742     0.0000    40.0000 </r>
       <r>    -3.5209     0.0000    40.0000 </r>
       <r>    -3.4676     0.0050    40.0003 </r>
       <r>    -3.4142     0.8751    40.0469 </r>
       <r>    -3.3609    19.3440    41.0785 </r>
       <r>    -3.3076    60.8463    44.3231 </r>
       <r>    -3.2543    29.3615    45.8888 </r>
       <r>    -3.2009     2.0660    45.9990 </r>
       <r>    -3.1476     0.0189    46.0000 </r>
       <r>    -3.0943     0.0081    46.0004 </r>
       <r>    -3.0410     1.1963    46.0642 </r>
       <r>    -2.9876    22.6300    47.2710 </r>
       <r>    -2.9343    61.4988    50.5504 </r>
       <r>    -2.8810    26.9233    51.9861 </r>
       <r>    -2.8277    34.2103    53.8104 </r>
       <r>    -2.7743   118.6333    60.1365 </r>
       <r>    -2.7210    66.7871    63.6980 </r>
       <r>    -2.6677     5.6010    63.9967 </r>
       <r>    -2.6144     0.0625    64.0000 </r>
       <r>    -2.5610     0.0001    64.0000 </r>
       <r>    -2.5077     0.0000    64.0000 </r>
       <r>    -2.4544     0.0000    64.0000 </r>
       <r>    -2.4011     0.0000    64.0000 </r>
       <r>    -2.3477     0.0000    64.0000 </r>
       <r>    -2.2944     0.0000    64.0000 </r>
       <r>    -2.2411     0.0000    64.0000 </r>
       <r>    -2.1878     0.0000    64.0000 </r>
       <r>    -2.1344     0.0000    64.0000 </r>
       <r>    -2.0811     0.0000    64.0000 </r>
       <r>    -2.0278     0.0000    64.0000 </r>
       <r>    -1.9745     0.0000    64.0000 </r>
       <r>    -1.9211     0.0000    64.0000 </r>
       <r>    -1.8678     0.0000    64.0000 </r>
       <r>    -1.8145     0.0000    64.0000 </r>
       <r>    -1.7611     0.0000    64.0000 </r>
       <r>    -1.7078     0.0000    64.0000 </r>
       <r>    -1.6545     0.0000    64.0000 </r>
       <r>    -1.6012     0.0000    64.0000 </r>
       <r>    -1.5478     0.0000    64.0000 </r>
       <r>    -1.4945     0.0000    64.0000 </r>
       <r>    -1.4412     0.0000    64.0000 </r>
       <r>    -1.3879     0.0111    64.0006 </r>
       <r>    -1.3345     1.8413    64.0988 </r>
       <r>    -1.2812    39.2936    66.1941 </r>
       <r>    -1.2279   122.9972    72.7530 </r>
       <r>    -1.1746    85.3060    77.3020 </r>
       <r>    -1.1212    66.2139    80.8328 </r>
       <r>    -1.0679    38.9783    82.9114 </r>
       <r>    -1.0146    64.1445    86.3319 </r>
       <r>    -0.9613    67.2437    89.9177 </r>
       <r>    -0.9079    60.7780    93.1587 </r>
       <r>    -0.8546    15.1967    93.9691 </r>
       <r>    -0.8013     0.5772    93.9998 </r>
       <r>    -0.7480     0.0029    94.0000 </r>
       <r>    -0.6946     0.0000    94.0000 </r>
       <r>    -0.6413     0.0000    94.0000 </r>
       <r>    -0.5880     0.0000    94.0000 </r>
       <r>    -0.5347     0.0000    94.0000 </r>
       <r>    -0.4813     0.0000    94.0000 </r>
       <r>    -0.4280     0.0000    94.0000 </r>
       <r>    -0.3747     0.0047    94.0003 </r>
       <r>    -0.3214     0.5718    94.0307 </r>
       <r>    -0.2680     9.2616    94.5246 </r>
       <r>    -0.2147    34.4859    96.3636 </r>
       <r>    -0.1614   102.1531   101.8109 </r>
       <r>    -0.1081    99.6015   107.1222 </r>
       <r>    -0.0547    16.0927   107.9804 </r>
       <r>    -0.0014     0.3672   107.9999 </r>
       <r>     0.0519     0.0011   108.0000 </r>
       <r>     0.1052     0.0000   108.0000 </r>
       <r>     0.1586     0.0000   108.0000 </r>
       <r>     0.2119     0.0000   108.0000 </r>
       <r>     0.2652     0.0000   108.0000 </r>
       <r>     0.3185     0.0000   108.0000 </r>
       <r>     0.3719     0.0000   108.0000 </r>
       <r>     0.4252     0.0000   108.0000 </r>
       <r>     0.4785     0.0000   108.0000 </r>
       <r>     0.5318     0.0000   108.0000 </r>
       <r>     0.5852     0.0158   108.0008 </r>
       <r>     0.6385     1.8464   108.0993 </r>
       <r>     0.6918    27.8334   109.5835 </r>
       <r>     0.7451    61.1107   112.8423 </r>
       <r>     0.7985    20.6942   113.9458 </r>
       <r>     0.8518     1.0100   113.9997 </r>
       <r>     0.9051     0.0100   114.0002 </r>
       <r>     0.9584     0.7076   114.0379 </r>
       <r>     1.0118    17.3181   114.9614 </r>
       <r>     1.0651    60.0349   118.1628 </r>
       <r>     1.1184    31.9344   119.8657 </r>
       <r>     1.1717     2.4929   119.9986 </r>
       <r>     1.2251     0.0254   120.0000 </r>
       <r>     1.2784     0.0000   120.0000 </r>
       <r>     1.3317     0.0000   120.0000 </r>
       <r>     1.3850     0.0000   120.0000 </r>
       <r>     1.4384     0.0000   120.0000 </r>
       <r>     1.4917     0.0004   120.0000 </r>
       <r>     1.5450     0.1824   120.0097 </r>
       <r>     1.5983    11.0139   120.5971 </r>
       <r>     1.6517    92.0419   125.5052 </r>
       <r>     1.7050   144.3998   133.2054 </r>
       <r>     1.7583    76.2328   137.2705 </r>
       <r>     1.8116    13.2794   137.9787 </r>
       <r>     1.8650     0.3987   137.9999 </r>
       <r>     1.9183     0.0015   138.0000 </r>
       <r>     1.9716     0.0000   138.0000 </r>
       <r>     2.0249     0.0000   138.0000 </r>
       <r>     2.0783     0.0000   138.0000 </r>
       <r>     2.1316     0.0070   138.0004 </r>
       <r>     2.1849     1.0943   138.0587 </r>
       <r>     2.2382    21.7705   139.2196 </r>
       <r>     2.2916    64.3978   142.6537 </r>
       <r>     2.3449    77.4976   146.7863 </r>
       <r>     2.3982   148.4836   154.7042 </r>
       <r>     2.4516   108.4238   160.4859 </r>
       <r>     2.5049    26.9676   161.9240 </r>
       <r>     2.5582     1.4151   161.9995 </r>
       <r>     2.6115     0.0683   162.0031 </r>
       <r>     2.6649     5.4169   162.2920 </r>
       <r>     2.7182    66.2484   165.8247 </r>
       <r>     2.7715   119.1404   172.1779 </r>
       <r>     2.8248    32.8793   173.9312 </r>
       <r>     2.8782     1.3281   174.0020 </r>
       <r>     2.9315     4.2982   174.2312 </r>
       <r>     2.9848    57.7535   177.3109 </r>
       <r>     3.0381   120.1125   183.7160 </r>
       <r>     3.0915    40.7124   185.8870 </r>
       <r>     3.1448     2.1051   185.9992 </r>
       <r>     3.1981     0.0150   186.0000 </r>
       <r>     3.2514     0.1147   186.0061 </r>
       <r>     3.3048     7.3567   186.3984 </r>
       <r>     3.3581    69.9722   190.1297 </r>
       <r>     3.4114   119.9000   196.5234 </r>
       <r>     3.4647    79.9673   200.7877 </r>
       <r>     3.5181    51.9522   203.5581 </r>
       <r>     3.5714     8.1108   203.9906 </r>
       <r>     3.6247     0.3033   204.0068 </r>
       <r>     3.6780     8.7439   204.4730 </r>
       <r>     3.7314    88.2598   209.1795 </r>
       <r>     3.7847   163.8836   217.9187 </r>
       <r>     3.8380    69.7709   221.6392 </r>
       <r>     3.8913     6.6599   221.9944 </r>
       <r>     3.9447     0.2403   222.0072 </r>
       <r>     3.9980     4.5173   222.2481 </r>
       <r>     4.0513    29.2342   223.8070 </r>
       <r>     4.1046    66.8592   227.3723 </r>
       <r>     4.1580    44.1116   229.7245 </r>
       <r>     4.2113     5.1001   229.9965 </r>
       <r>     4.2646     1.8435   230.0948 </r>
       <r>     4.3179    28.0534   231.5908 </r>
       <r>     4.3713    79.2851   235.8187 </r>
       <r>     4.4246    81.0069   240.1384 </r>
       <r>     4.4779    33.0405   241.9003 </r>
       <r>     4.5312    15.9220   242.7493 </r>
       <r>     4.5846    40.5734   244.9129 </r>
       <r>     4.6379    19.0514   245.9288 </r>
       <r>     4.6912     1.3226   245.9994 </r>
       <r>     4.7445     0.0363   246.0013 </r>
       <r>     4.7979     2.3885   246.1287 </r>
       <r>     4.8512    31.1371   247.7891 </r>
       <r>     4.9045    60.1619   250.9972 </r>
       <r>     4.9578    18.0255   251.9584 </r>
       <r>     5.0112     0.7754   251.9998 </r>
       <r>     5.0645     0.0043   252.0000 </r>
       <r>     5.1178     0.0000   252.0000 </r>
       <r>     5.1711     0.0000   252.0000 </r>
       <r>     5.2245     0.0177   252.0009 </r>
       <r>     5.2778     1.6610   252.0895 </r>
       <r>     5.3311    20.9775   253.2082 </r>
       <r>     5.3844    39.8911   255.3354 </r>
       <r>     5.4378    11.9398   255.9721 </r>
       <r>     5.4911     0.5211   255.9998 </r>
       <r>     5.5444     0.0030   256.0000 </r>
       <r>     5.5977     0.0000   256.0000 </r>
       <r>     5.6511     0.0000   256.0000 </r>
       <r>     5.7044     0.0000   256.0000 </r>
       <r>     5.7577     0.0000   256.0000 </r>
       <r>     5.8110     0.0000   256.0000 </r>
       <r>     5.8644     0.0000   256.0000 </r>
       <r>     5.9177     0.0000   256.0000 </r>
       <r>     5.9710     0.0000   256.0000 </r>
       <r>     6.0243     0.0000   256.0000 </r>
       <r>     6.0777     0.0000   256.0000 </r>
       <r>     6.1310     0.0000   256.0000 </r>
       <r>     6.1843     0.0000   256.0000 </r>
       <r>     6.2376     0.0000   256.0000 </r>
       <r>     6.2910     0.0000   256.0000 </r>
       <r>     6.3443     0.0000   256.0000 </r>
       <r>     6.3976     0.0002   256.0000 </r>
       <r>     6.4510     0.0866   256.0046 </r>
       <r>     6.5043     5.3115   256.2879 </r>
       <r>     6.5576    43.5733   258.6114 </r>
       <r>     6.6109    53.3797   261.4579 </r>
       <r>     6.6643     9.9122   261.9865 </r>
       <r>     6.7176     0.2528   262.0000 </r>
       <r>     6.7709     0.0008   262.0000 </r>
       <r>     6.8242     0.0000   262.0000 </r>
       <r>     6.8776     0.0199   262.0011 </r>
       <r>     6.9309     2.1391   262.1151 </r>
       <r>     6.9842    29.8547   263.7071 </r>
       <r>     7.0375    60.7364   266.9459 </r>
       <r>     7.0909    18.9265   267.9552 </r>
       <r>     7.1442     1.0492   268.0111 </r>
       <r>     7.1975     5.5312   268.3061 </r>
       <r>     7.2508    19.9760   269.3713 </r>
       <r>     7.3042    10.9170   269.9535 </r>
       <r>     7.3575     0.8736   270.0001 </r>
       <r>     7.4108     1.3818   270.0738 </r>
       <r>     7.4641    24.2010   271.3643 </r>
       <r>     7.5175    61.7585   274.6576 </r>
       <r>     7.5708    33.3753   276.4373 </r>
       <r>     7.6241    53.7891   279.3056 </r>
       <r>     7.6774    44.9544   281.7028 </r>
       <r>     7.7308    17.4926   282.6356 </r>
       <r>     7.7841    85.1475   287.1762 </r>
       <r>     7.8374   104.7872   292.7640 </r>
       <r>     7.8907    22.4345   293.9603 </r>
       <r>     7.9441     2.4625   294.0916 </r>
       <r>     7.9974    38.3482   296.1366 </r>
       <r>     8.0507   128.0491   302.9648 </r>
       <r>     8.1040    80.1979   307.2414 </r>
       <r>     8.1574    13.5860   307.9659 </r>
       <r>     8.2107     1.6127   308.0519 </r>
       <r>     8.2640    20.5272   309.1465 </r>
       <r>     8.3173    61.3011   312.4154 </r>
       <r>     8.3707    27.8978   313.9030 </r>
       <r>     8.4240     4.7146   314.1545 </r>
       <r>     8.4773    49.2249   316.7794 </r>
       <r>     8.5306   133.5881   323.9030 </r>
       <r>     8.5840    68.8899   327.5766 </r>
       <r>     8.6373     7.7563   327.9902 </r>
       <r>     8.6906     0.1832   328.0000 </r>
       <r>     8.7439     0.0007   328.0000 </r>
       <r>     8.7973     0.0000   328.0000 </r>
       <r>     8.8506     0.0000   328.0000 </r>
       <r>     8.9039     0.0000   328.0000 </r>
       <r>     8.9572     0.0000   328.0000 </r>
       <r>     9.0106     0.0000   328.0000 </r>
       <r>     9.0639     0.0000   328.0000 </r>
       <r>     9.1172     0.0000   328.0000 </r>
       <r>     9.1705     0.0000   328.0000 </r>
       <r>     9.2239     0.0000   328.0000 </r>
       <r>     9.2772     0.0000   328.0000 </r>
      </set>
     </set>
    </array>
   </total>
  </dos>
 </calculation>
 <structure name="finalpos" >
  <crystal>
   <varray name="basis" >
    <v>      10.93252578       0.00000000       0.00000000 </v>
    <v>       0.00000000      10.93252578       0.00000000 </v>
    <v>       0.00000000       0.00000000      10.93252578 </v>
   </varray>
   <i name="volume">   1306.65679237 </i>
   <varray name="rec_basis" >
    <v>       0.09147017       0.00000000       0.00000000 </v>
    <v>       0.00000000       0.09147017       0.00000000 </v>
    <v>       0.00000000       0.00000000       0.09147017 </v>
   </varray>
  </crystal>
  <varray name="positions" >
   <v>       0.44024411       0.43750000       0.43750000 </v>
   <v>       0.93750000       0.43750000       0.43750000 </v>
   <v>       0.43750000       0.93750000       0.43750000 </v>
   <v>       0.93750000       0.93750000       0.43750000 </v>
   <v>       0.43750000       0.43750000       0.93750000 </v>
   <v>       0.93750000       0.43750000       0.93750000 </v>
   <v>       0.43750000       0.93750000       0.93750000 </v>
   <v>       0.93750000       0.93750000       0.93750000 </v>
   <v>       0.43750000       0.18750000       0.18750000 </v>
   <v>       0.93750000       0.18750000       0.18750000 </v>
   <v>       0.43750000       0.68750000       0.18750000 </v>
   <v>       0.93750000       0.68750000       0.18750000 </v>
   <v>       0.43750000       0.18750000       0.68750000 </v>
   <v>       0.93750000       0.18750000       0.68750000 </v>
   <v>       0.43750000       0.68750000       0.68750000 </v>
   <v>       0.93750000       0.68750000       0.68750000 </v>
   <v>       0.18750000       0.43750000       0.18750000 </v>
   <v>       0.68750000       0.43750000       0.18750000 </v>
   <v>       0.18750000       0.93750000       0.18750000 </v>
   <v>       0.68750000       0.93750000       0.18750000 </v>
   <v>       0.18750000       0.43750000       0.68750000 </v>
   <v>       0.68750000       0.43750000       0.68750000 </v>
   <v>       0.18750000       0.93750000       0.68750000 </v>
   <v>       0.68750000       0.93750000       0.68750000 </v>
   <v>       0.18750000       0.18750000       0.43750000 </v>
   <v>       0.68750000       0.18750000       0.43750000 </v>
   <v>       0.18750000       0.68750000       0.43750000 </v>
   <v>       0.68750000       0.68750000       0.43750000 </v>
   <v>       0.18750000       0.18750000       0.93750000 </v>
   <v>       0.68750000       0.18750000       0.93750000 </v>
   <v>       0.18750000       0.68750000       0.93750000 </v>
   <v>       0.68750000       0.68750000       0.93750000 </v>
   <v>       0.06250000       0.06250000       0.06250000 </v>
   <v>       0.56250000       0.06250000       0.06250000 </v>
   <v>       0.05975589       0.56250000       0.06250000 </v>
   <v>       0.56250000       0.56250000       0.06250000 </v>
   <v>       0.06250000       0.06250000       0.56250000 </v>
   <v>       0.56250000       0.06250000       0.56250000 </v>
   <v>       0.06250000       0.56250000       0.56250000 </v>
   <v>       0.56250000       0.56250000       0.56250000 </v>
   <v>       0.06250000       0.31250000       0.31250000 </v>
   <v>       0.56250000       0.31250000       0.31250000 </v>
   <v>       0.06250000       0.81250000       0.31250000 </v>
   <v>       0.56250000       0.81250000       0.31250000 </v>
   <v>       0.06250000       0.31250000       0.81250000 </v>
   <v>       0.56250000       0.31250000       0.81250000 </v>
   <v>       0.06250000       0.81250000       0.81250000 </v>
   <v>       0.56250000       0.81250000       0.81250000 </v>
   <v>       0.31250000       0.06250000       0.31250000 </v>
   <v>       0.81250000       0.06250000       0.31250000 </v>
   <v>       0.31250000       0.56250000       0.31250000 </v>
   <v>       0.81250000       0.56250000       0.31250000 </v>
   <v>       0.31250000       0.06250000       0.81250000 </v>
   <v>       0.81250000       0.06250000       0.81250000 </v>
   <v>       0.31250000       0.56250000       0.81250000 </v>
   <v>       0.81250000       0.56250000       0.81250000 </v>
   <v>       0.31250000       0.31250000       0.06250000 </v>
   <v>       0.81250000       0.31250000       0.06250000 </v>
   <v>       0.31250000       0.81250000       0.06250000 </v>
   <v>       0.81250000       0.81250000       0.06250000 </v>
   <v>       0.31250000       0.31250000       0.56250000 </v>
   <v>       0.81250000       0.31250000       0.56250000 </v>
   <v>       0.31250000       0.81250000       0.56250000 </v>
   <v>       0.81250000       0.81250000       0.56250000 </v>
  </varray>
 </structure>
</modeling>
