
     Program PWSCF v.5.3.0 (svn rev. 11974) starts on  3Feb2016 at 13:44:27 

     This program is part of the open-source Quantum ESPRESSO suite
     for quantum simulation of materials; please cite
         "P. Giannozzi et al., J. Phys.:Condens. Matter 21 395502 (2009);
          URL http://www.quantum-espresso.org", 
     in publications or presentations arising from this work. More details at
     http://www.quantum-espresso.org/quote

     Parallel version (MPI), running on    16 processors
     R & G space division:  proc/nbgrp/npool/nimage =      16
     Reading input from Si.in

     Current dimensions of program PWSCF are:
     Max number of different atomic species (ntypx) = 10
     Max number of k-points (npk) =  40000
     Max angular momentum in pseudopotentials (lmaxx) =  3
               file Si.pbe-n-kjpaw_psl.0.1.UPF: wavefunction(s)  3S renormalized

     Subspace diagonalization in iterative solution of the eigenvalue problem:
     one sub-group per k-point group (pool) will be used
     scalapack distributed-memory algorithm (size of sub-group:  2*  2 procs)

 
     Parallelization info
     --------------------
     sticks:   dense  smooth     PW     G-vecs:    dense   smooth      PW
     Min         424     424    109                26332    26332    3467
     Max         425     425    110                26336    26336    3472
     Sum        6785    6785   1757               421349   421349   55515
 


     bravais-lattice index     =            0
     lattice parameter (alat)  =      20.6591  a.u.
     unit-cell volume          =    8817.2783 (a.u.)^3
     number of atoms/cell      =           64
     number of atomic types    =            1
     number of electrons       =       256.00
     number of Kohn-Sham states=          154
     kinetic-energy cutoff     =      50.0000  Ry
     charge density cutoff     =     200.0000  Ry
     convergence threshold     =      1.0E-09
     mixing beta               =       0.7000
     number of iterations used =            8  plain     mixing
     Exchange-correlation      =  SLA  PW   PBX  PBC ( 1  4  3  4 0 0)

     celldm(1)=  20.659106  celldm(2)=   0.000000  celldm(3)=   0.000000
     celldm(4)=   0.000000  celldm(5)=   0.000000  celldm(6)=   0.000000

     crystal axes: (cart. coord. in units of alat)
               a(1) = (   1.000000   0.000000   0.000000 )  
               a(2) = (   0.000000   1.000000   0.000000 )  
               a(3) = (   0.000000   0.000000   1.000000 )  

     reciprocal axes: (cart. coord. in units 2 pi/alat)
               b(1) = (  1.000000  0.000000  0.000000 )  
               b(2) = (  0.000000  1.000000  0.000000 )  
               b(3) = (  0.000000  0.000000  1.000000 )  


     PseudoPot. # 1 for Si read from file:
     /home/togo/espresso/pseudo/Si.pbe-n-kjpaw_psl.0.1.UPF
     MD5 check sum: b9d333a40e496bef61db012f150758bf
     Pseudo is Projector augmented-wave + core cor, Zval =  4.0
     Generated using "atomic" code by A. Dal Corso  v.5.0.2 svn rev. 9415
     Shape of augmentation charge: PSQ
     Using radial grid of 1141 points,  4 beta functions with: 
                l(1) =   0
                l(2) =   0
                l(3) =   1
                l(4) =   1
     Q(r) pseudized with 0 coefficients 


     atomic species   valence    mass     pseudopotential
        Si             4.00    28.08550     Si( 1.00)

     No symmetry found



   Cartesian axes

     site n.     atom                  positions (alat units)
         1           Si  tau(   1) = (   0.4404043   0.4375000   0.4375000  )
         2           Si  tau(   2) = (   0.9375000   0.4375000   0.4375000  )
         3           Si  tau(   3) = (   0.4375000   0.9375000   0.4375000  )
         4           Si  tau(   4) = (   0.9375000   0.9375000   0.4375000  )
         5           Si  tau(   5) = (   0.4375000   0.4375000   0.9375000  )
         6           Si  tau(   6) = (   0.9375000   0.4375000   0.9375000  )
         7           Si  tau(   7) = (   0.4375000   0.9375000   0.9375000  )
         8           Si  tau(   8) = (   0.9375000   0.9375000   0.9375000  )
         9           Si  tau(   9) = (   0.4375000   0.1875000   0.1875000  )
        10           Si  tau(  10) = (   0.9375000   0.1875000   0.1875000  )
        11           Si  tau(  11) = (   0.4375000   0.6875000   0.1875000  )
        12           Si  tau(  12) = (   0.9375000   0.6875000   0.1875000  )
        13           Si  tau(  13) = (   0.4375000   0.1875000   0.6875000  )
        14           Si  tau(  14) = (   0.9375000   0.1875000   0.6875000  )
        15           Si  tau(  15) = (   0.4375000   0.6875000   0.6875000  )
        16           Si  tau(  16) = (   0.9375000   0.6875000   0.6875000  )
        17           Si  tau(  17) = (   0.1875000   0.4375000   0.1875000  )
        18           Si  tau(  18) = (   0.6875000   0.4375000   0.1875000  )
        19           Si  tau(  19) = (   0.1875000   0.9375000   0.1875000  )
        20           Si  tau(  20) = (   0.6875000   0.9375000   0.1875000  )
        21           Si  tau(  21) = (   0.1875000   0.4375000   0.6875000  )
        22           Si  tau(  22) = (   0.6875000   0.4375000   0.6875000  )
        23           Si  tau(  23) = (   0.1875000   0.9375000   0.6875000  )
        24           Si  tau(  24) = (   0.6875000   0.9375000   0.6875000  )
        25           Si  tau(  25) = (   0.1875000   0.1875000   0.4375000  )
        26           Si  tau(  26) = (   0.6875000   0.1875000   0.4375000  )
        27           Si  tau(  27) = (   0.1875000   0.6875000   0.4375000  )
        28           Si  tau(  28) = (   0.6875000   0.6875000   0.4375000  )
        29           Si  tau(  29) = (   0.1875000   0.1875000   0.9375000  )
        30           Si  tau(  30) = (   0.6875000   0.1875000   0.9375000  )
        31           Si  tau(  31) = (   0.1875000   0.6875000   0.9375000  )
        32           Si  tau(  32) = (   0.6875000   0.6875000   0.9375000  )
        33           Si  tau(  33) = (   0.0625000   0.0625000   0.0625000  )
        34           Si  tau(  34) = (   0.5625000   0.0625000   0.0625000  )
        35           Si  tau(  35) = (   0.0625000   0.5625000   0.0625000  )
        36           Si  tau(  36) = (   0.5625000   0.5654043   0.0625000  )
        37           Si  tau(  37) = (   0.0625000   0.0625000   0.5625000  )
        38           Si  tau(  38) = (   0.5625000   0.0625000   0.5625000  )
        39           Si  tau(  39) = (   0.0625000   0.5625000   0.5625000  )
        40           Si  tau(  40) = (   0.5625000   0.5625000   0.5625000  )
        41           Si  tau(  41) = (   0.0625000   0.3125000   0.3125000  )
        42           Si  tau(  42) = (   0.5625000   0.3125000   0.3125000  )
        43           Si  tau(  43) = (   0.0625000   0.8125000   0.3125000  )
        44           Si  tau(  44) = (   0.5625000   0.8125000   0.3125000  )
        45           Si  tau(  45) = (   0.0625000   0.3125000   0.8125000  )
        46           Si  tau(  46) = (   0.5625000   0.3125000   0.8125000  )
        47           Si  tau(  47) = (   0.0625000   0.8125000   0.8125000  )
        48           Si  tau(  48) = (   0.5625000   0.8125000   0.8125000  )
        49           Si  tau(  49) = (   0.3125000   0.0625000   0.3125000  )
        50           Si  tau(  50) = (   0.8125000   0.0625000   0.3125000  )
        51           Si  tau(  51) = (   0.3125000   0.5625000   0.3125000  )
        52           Si  tau(  52) = (   0.8125000   0.5625000   0.3125000  )
        53           Si  tau(  53) = (   0.3125000   0.0625000   0.8125000  )
        54           Si  tau(  54) = (   0.8125000   0.0625000   0.8125000  )
        55           Si  tau(  55) = (   0.3125000   0.5625000   0.8125000  )
        56           Si  tau(  56) = (   0.8125000   0.5625000   0.8125000  )
        57           Si  tau(  57) = (   0.3125000   0.3125000   0.0625000  )
        58           Si  tau(  58) = (   0.8125000   0.3125000   0.0625000  )
        59           Si  tau(  59) = (   0.3125000   0.8125000   0.0625000  )
        60           Si  tau(  60) = (   0.8125000   0.8125000   0.0625000  )
        61           Si  tau(  61) = (   0.3125000   0.3125000   0.5625000  )
        62           Si  tau(  62) = (   0.8125000   0.3125000   0.5625000  )
        63           Si  tau(  63) = (   0.3125000   0.8125000   0.5625000  )
        64           Si  tau(  64) = (   0.8125000   0.8125000   0.5625000  )

     number of k points=     4  gaussian smearing, width (Ry)=  0.0100
                       cart. coord. in units 2pi/alat
        k(    1) = (   0.2500000   0.2500000   0.2500000), wk =   0.5000000
        k(    2) = (  -0.2500000  -0.2500000   0.2500000), wk =   0.5000000
        k(    3) = (  -0.2500000   0.2500000  -0.2500000), wk =   0.5000000
        k(    4) = (   0.2500000  -0.2500000  -0.2500000), wk =   0.5000000

     Dense  grid:   421349 G-vectors     FFT dimensions: (  96,  96,  96)

     Largest allocated arrays     est. size (Mb)     dimensions
        Kohn-Sham Wavefunctions         7.73 Mb     (    3289,  154)
        NL pseudopotentials            25.70 Mb     (    3289,  512)
        Each V/rho on FFT grid          0.84 Mb     (   55296)
        Each G-vector array             0.20 Mb     (   26336)
        G-vector shells                 0.01 Mb     (    1719)
     Largest temporary arrays     est. size (Mb)     dimensions
        Auxiliary wavefunctions        30.91 Mb     (    3289,  616)
        Each subspace H/S matrix        1.45 Mb     (     308,  308)
        Each <psi_i|beta_j> matrix      1.20 Mb     (     512,  154)
        Arrays for rho mixing           6.75 Mb     (   55296,    8)

     Check: negative/imaginary core charge=   -0.000001    0.000000

     Initial potential from superposition of free atoms

     starting charge  255.96421, renormalised to  256.00000
     Starting wfc are  256 randomized atomic wfcs
     Checking if some PAW data can be deallocated... 

     total cpu time spent up to now is       13.5 secs

     per-process dynamical memory:   114.8 Mb

     Self-consistent Calculation

     iteration #  1     ecut=    50.00 Ry     beta=0.70
     Davidson diagonalization with overlap
     ethr =  1.00E-02,  avg # of iterations =  3.0

     Threshold (ethr) on eigenvalues was too large:
     Diagonalizing with lowered threshold

     Davidson diagonalization with overlap
     ethr =  7.00E-04,  avg # of iterations =  1.0

     total cpu time spent up to now is       52.9 secs

     total energy              =   -2990.45690427 Ry
     Harris-Foulkes estimate   =   -2990.87687689 Ry
     estimated scf accuracy    <       1.77351534 Ry

     iteration #  2     ecut=    50.00 Ry     beta=0.70
     Davidson diagonalization with overlap
     ethr =  6.93E-04,  avg # of iterations =  1.0

     total cpu time spent up to now is       71.1 secs

     total energy              =   -2990.52360660 Ry
     Harris-Foulkes estimate   =   -2990.52748483 Ry
     estimated scf accuracy    <       0.07629343 Ry

     iteration #  3     ecut=    50.00 Ry     beta=0.70
     Davidson diagonalization with overlap
     ethr =  2.98E-05,  avg # of iterations = 11.0

     total cpu time spent up to now is      103.2 secs

     total energy              =   -2990.53058014 Ry
     Harris-Foulkes estimate   =   -2990.53137847 Ry
     estimated scf accuracy    <       0.00197514 Ry

     iteration #  4     ecut=    50.00 Ry     beta=0.70
     Davidson diagonalization with overlap
     ethr =  7.72E-07,  avg # of iterations =  6.8

     total cpu time spent up to now is      145.1 secs

     total energy              =   -2990.53035740 Ry
     Harris-Foulkes estimate   =   -2990.53275613 Ry
     estimated scf accuracy    <       0.00758480 Ry

     iteration #  5     ecut=    50.00 Ry     beta=0.70
     Davidson diagonalization with overlap
     ethr =  7.72E-07,  avg # of iterations =  4.8

     total cpu time spent up to now is      170.2 secs

     total energy              =   -2990.53148374 Ry
     Harris-Foulkes estimate   =   -2990.53160563 Ry
     estimated scf accuracy    <       0.00034900 Ry

     iteration #  6     ecut=    50.00 Ry     beta=0.70
     Davidson diagonalization with overlap
     ethr =  1.36E-07,  avg # of iterations =  2.2

     total cpu time spent up to now is      187.8 secs

     total energy              =   -2990.53154540 Ry
     Harris-Foulkes estimate   =   -2990.53156255 Ry
     estimated scf accuracy    <       0.00004847 Ry

     iteration #  7     ecut=    50.00 Ry     beta=0.70
     Davidson diagonalization with overlap
     ethr =  1.89E-08,  avg # of iterations =  2.8

     total cpu time spent up to now is      206.9 secs

     total energy              =   -2990.53155435 Ry
     Harris-Foulkes estimate   =   -2990.53155629 Ry
     estimated scf accuracy    <       0.00000447 Ry

     iteration #  8     ecut=    50.00 Ry     beta=0.70
     Davidson diagonalization with overlap
     ethr =  1.75E-09,  avg # of iterations =  3.0

     total cpu time spent up to now is      228.4 secs

     total energy              =   -2990.53155554 Ry
     Harris-Foulkes estimate   =   -2990.53155575 Ry
     estimated scf accuracy    <       0.00000050 Ry

     iteration #  9     ecut=    50.00 Ry     beta=0.70
     Davidson diagonalization with overlap
     ethr =  1.97E-10,  avg # of iterations =  3.0

     total cpu time spent up to now is      247.9 secs

     total energy              =   -2990.53155556 Ry
     Harris-Foulkes estimate   =   -2990.53155567 Ry
     estimated scf accuracy    <       0.00000019 Ry

     iteration # 10     ecut=    50.00 Ry     beta=0.70
     Davidson diagonalization with overlap
     ethr =  7.36E-11,  avg # of iterations =  2.8

     total cpu time spent up to now is      265.5 secs

     total energy              =   -2990.53155555 Ry
     Harris-Foulkes estimate   =   -2990.53155560 Ry
     estimated scf accuracy    <       0.00000006 Ry

     iteration # 11     ecut=    50.00 Ry     beta=0.70
     Davidson diagonalization with overlap
     ethr =  2.47E-11,  avg # of iterations =  2.0

     total cpu time spent up to now is      283.0 secs

     total energy              =   -2990.53155556 Ry
     Harris-Foulkes estimate   =   -2990.53155556 Ry
     estimated scf accuracy    <          1.6E-09 Ry

     iteration # 12     ecut=    50.00 Ry     beta=0.70
     Davidson diagonalization with overlap
     ethr =  6.44E-13,  avg # of iterations =  3.0

     total cpu time spent up to now is      309.5 secs

     total energy              =   -2990.53155556 Ry
     Harris-Foulkes estimate   =   -2990.53155556 Ry
     estimated scf accuracy    <          1.6E-09 Ry

     iteration # 13     ecut=    50.00 Ry     beta=0.70
     Davidson diagonalization with overlap
     ethr =  6.08E-13,  avg # of iterations =  3.0

     total cpu time spent up to now is      331.2 secs

     End of self-consistent calculation

          k = 0.2500 0.2500 0.2500 ( 52563 PWs)   bands (ev):

    -5.6250  -5.0990  -5.0964  -5.0937  -4.5993  -4.5968  -4.5941  -4.1632
    -4.0659  -4.0633  -4.0609  -3.6559  -3.6491  -3.6471  -3.6469  -3.6449
    -3.6385  -3.4590  -3.4548  -3.4505  -2.9612  -2.9586  -2.9559  -2.5930
    -2.5892  -2.5856  -2.4284  -2.4230  -2.4212  -2.4204  -2.4186  -2.4129
    -0.8853  -0.8815  -0.8787  -0.8778  -0.8751  -0.8713  -0.7839  -0.7806
    -0.7769  -0.6675  -0.6622  -0.6570  -0.5836  -0.5762  -0.5683   0.1263
     0.2035   0.2066   0.2104   0.2109   0.2150   0.2181   1.0790   1.0854
     1.0917   1.4140   1.4184   1.4225   2.0247   2.0267   2.0288   2.0294
     2.0315   2.0337   2.0859   2.0881   2.0907   2.6383   2.6401   2.6419
     2.7380   2.7401   2.7424   2.7440   2.7461   2.7479   2.7931   2.7968
     2.7999   3.1009   3.1059   3.1075   3.1076   3.1092   3.1141   3.3692
     3.3720   3.3744   3.3822   3.3861   3.3898   3.7311   3.7347   3.7378
     3.7539   3.7570   3.7589   3.8373   3.8396   3.8418   4.1064   4.1120
     4.1142   4.1144   4.1165   4.1217   4.1511   4.1538   4.1563   4.4133
     4.4678   4.4708   4.4743   4.7121   4.7145   4.7169   4.7728   4.7787
     4.7856   4.9319   4.9406   5.2404   5.2436   5.2468   5.7191   5.7289
     6.9324   6.9363   6.9400   7.3740   7.3767   7.3795   7.5987   7.8586
     7.8618   7.8652   7.9877   7.9918   7.9956   8.1488   8.1512   8.1541
     8.1653   8.1692   8.1729   8.3963   8.3973   8.4022   8.4026   8.4072
     8.4084   8.4480

          k =-0.2500-0.2500 0.2500 ( 52563 PWs)   bands (ev):

    -5.6250  -5.0973  -5.0964  -5.0953  -4.5977  -4.5968  -4.5958  -4.1632
    -4.0648  -4.0633  -4.0618  -3.6529  -3.6485  -3.6472  -3.6469  -3.6455
    -3.6414  -3.4590  -3.4549  -3.4505  -2.9611  -2.9585  -2.9561  -2.5930
    -2.5890  -2.5856  -2.4278  -2.4225  -2.4216  -2.4201  -2.4192  -2.4135
    -0.8875  -0.8805  -0.8786  -0.8775  -0.8763  -0.8695  -0.7837  -0.7809
    -0.7767  -0.6675  -0.6622  -0.6569  -0.5811  -0.5762  -0.5709   0.1263
     0.2024   0.2094   0.2106   0.2108   0.2121   0.2192   1.0796   1.0854
     1.0911   1.4141   1.4184   1.4226   2.0241   2.0277   2.0290   2.0293
     2.0307   2.0342   2.0857   2.0882   2.0906   2.6378   2.6401   2.6424
     2.7376   2.7393   2.7430   2.7435   2.7466   2.7487   2.7921   2.7966
     2.8008   3.1029   3.1050   3.1072   3.1079   3.1102   3.1123   3.3694
     3.3718   3.3731   3.3825   3.3869   3.3901   3.7329   3.7347   3.7364
     3.7521   3.7563   3.7609   3.8368   3.8395   3.8423   4.1057   4.1131
     4.1141   4.1144   4.1152   4.1227   4.1506   4.1536   4.1571   4.4129
     4.4686   4.4714   4.4730   4.7114   4.7144   4.7175   4.7741   4.7787
     4.7841   4.9319   4.9406   5.2395   5.2434   5.2479   5.7191   5.7289
     6.9330   6.9361   6.9396   7.3716   7.3768   7.3818   7.5987   7.8570
     7.8618   7.8666   7.9878   7.9918   7.9958   8.1474   8.1513   8.1550
     8.1670   8.1695   8.1712   8.3968   8.3990   8.4024   8.4026   8.4058
     8.4079   8.4478

          k =-0.2500 0.2500-0.2500 ( 52563 PWs)   bands (ev):

    -5.6251  -5.0993  -5.0960  -5.0933  -4.5998  -4.5966  -4.5939  -4.1642
    -4.0671  -4.0634  -4.0607  -3.6524  -3.6504  -3.6492  -3.6473  -3.6439
    -3.6363  -3.4577  -3.4548  -3.4497  -2.9645  -2.9603  -2.9566  -2.5923
    -2.5891  -2.5853  -2.4260  -2.4244  -2.4231  -2.4214  -2.4175  -2.4104
    -0.8850  -0.8834  -0.8804  -0.8795  -0.8735  -0.8710  -0.7848  -0.7809
    -0.7782  -0.6680  -0.6623  -0.6613  -0.5770  -0.5716  -0.5668   0.1300
     0.2014   0.2052   0.2080   0.2089   0.2151   0.2169   1.0830   1.0873
     1.0929   1.4153   1.4184   1.4212   2.0246   2.0272   2.0289   2.0301
     2.0305   2.0328   2.0848   2.0863   2.0903   2.6401   2.6424   2.6437
     2.7363   2.7388   2.7408   2.7438   2.7446   2.7466   2.7909   2.7936
     2.7983   3.1030   3.1056   3.1065   3.1075   3.1103   3.1135   3.3690
     3.3698   3.3725   3.3824   3.3852   3.3876   3.7339   3.7367   3.7387
     3.7561   3.7599   3.7634   3.8352   3.8387   3.8412   4.1125   4.1132
     4.1155   4.1159   4.1201   4.1245   4.1485   4.1528   4.1563   4.4169
     4.4668   4.4679   4.4713   4.7090   4.7131   4.7154   4.7791   4.7836
     4.7886   4.9324   4.9376   5.2359   5.2417   5.2448   5.7188   5.7244
     6.9318   6.9338   6.9380   7.3698   7.3774   7.3807   7.5972   7.8553
     7.8609   7.8645   7.9893   7.9939   7.9962   8.1459   8.1522   8.1540
     8.1666   8.1678   8.1713   8.3974   8.4008   8.4033   8.4055   8.4090
     8.4092   8.4456

          k = 0.2500-0.2500-0.2500 ( 52563 PWs)   bands (ev):

    -5.6250  -5.0993  -5.0967  -5.0933  -4.5995  -4.5968  -4.5937  -4.1621
    -4.0661  -4.0632  -4.0597  -3.6584  -3.6502  -3.6466  -3.6448  -3.6437
    -3.6417  -3.4595  -3.4549  -3.4520  -2.9605  -2.9568  -2.9528  -2.5936
    -2.5893  -2.5860  -2.4308  -2.4240  -2.4202  -2.4185  -2.4172  -2.4156
    -0.8862  -0.8830  -0.8769  -0.8759  -0.8732  -0.8717  -0.7827  -0.7800
    -0.7760  -0.6631  -0.6619  -0.6562  -0.5853  -0.5806  -0.5754   0.1226
     0.2046   0.2064   0.2125   0.2134   0.2163   0.2204   1.0778   1.0833
     1.0877   1.4156   1.4182   1.4213   2.0252   2.0278   2.0282   2.0296
     2.0312   2.0335   2.0868   2.0900   2.0915   2.6366   2.6377   2.6401
     2.7399   2.7418   2.7427   2.7452   2.7475   2.7495   2.7948   2.7993
     2.8023   3.1015   3.1047   3.1077   3.1086   3.1096   3.1122   3.3711
     3.3733   3.3742   3.3849   3.3872   3.3905   3.7300   3.7318   3.7358
     3.7498   3.7537   3.7567   3.8381   3.8402   3.8438   4.1038   4.1085
     4.1125   4.1130   4.1153   4.1160   4.1523   4.1544   4.1586   4.4088
     4.4711   4.4740   4.4749   4.7134   4.7157   4.7204   4.7699   4.7743
     4.7782   4.9350   4.9399   5.2423   5.2452   5.2515   5.7236   5.7292
     6.9346   6.9387   6.9405   7.3729   7.3762   7.3834   7.6002   7.8594
     7.8629   7.8682   7.9871   7.9896   7.9941   8.1491   8.1504   8.1553
     8.1669   8.1706   8.1726   8.3956   8.3958   8.3994   8.4017   8.4037
     8.4073   8.4502

     the Fermi energy is     6.3274 ev

!    total energy              =   -2990.53155556 Ry
     Harris-Foulkes estimate   =   -2990.53155556 Ry
     estimated scf accuracy    <          6.9E-10 Ry

     total all-electron energy =    -37124.667109 Ry

     The total energy is the sum of the following terms:

     one-electron contribution =     178.60663428 Ry
     hartree contribution      =      35.70139653 Ry
     xc contribution           =    -391.44199822 Ry
     ewald contribution        =    -534.00628167 Ry
     one-center paw contrib.   =   -2279.39130649 Ry
     smearing contrib. (-TS)   =       0.00000000 Ry

     convergence has been achieved in  13 iterations

     Forces acting on atoms (Ry/au):

     atom    1 type  1   force =    -0.01584067   -0.00005605    0.00003737
     atom    2 type  1   force =     0.00005044    0.00025316    0.00002793
     atom    3 type  1   force =     0.00008315    0.00002814    0.00002675
     atom    4 type  1   force =     0.00002415   -0.00002182    0.00003127
     atom    5 type  1   force =     0.00253661    0.00381181    0.00248163
     atom    6 type  1   force =     0.00002984   -0.00005840    0.00005089
     atom    7 type  1   force =    -0.00043694   -0.00001259    0.00003776
     atom    8 type  1   force =     0.00005124    0.00002813    0.00002876
     atom    9 type  1   force =    -0.00056586    0.00010090    0.00015184
     atom   10 type  1   force =    -0.00002560    0.00003449    0.00003593
     atom   11 type  1   force =    -0.00322799    0.00403848    0.00259531
     atom   12 type  1   force =    -0.00003775   -0.00004998    0.00004028
     atom   13 type  1   force =    -0.00055063   -0.00008427    0.00013456
     atom   14 type  1   force =    -0.00003060   -0.00003182    0.00004103
     atom   15 type  1   force =    -0.00057853   -0.00017388   -0.00007531
     atom   16 type  1   force =    -0.00002770    0.00024757    0.00001851
     atom   17 type  1   force =     0.00019387   -0.00016786    0.00017589
     atom   18 type  1   force =    -0.00224301    0.00369719   -0.00271425
     atom   19 type  1   force =     0.00001532    0.00001796   -0.00010566
     atom   20 type  1   force =     0.00000552   -0.00002191    0.00003824
     atom   21 type  1   force =     0.00020313    0.00036291   -0.00025513
     atom   22 type  1   force =     0.00018713    0.00005503    0.00019588
     atom   23 type  1   force =     0.00001099   -0.00001211    0.00004603
     atom   24 type  1   force =     0.00001471    0.00003805   -0.00010266
     atom   25 type  1   force =     0.00026226    0.00020505   -0.00014038
     atom   26 type  1   force =     0.00026485   -0.00020764   -0.00013871
     atom   27 type  1   force =     0.00025850    0.00003003    0.00008248
     atom   28 type  1   force =     0.00028877    0.00017307    0.00007524
     atom   29 type  1   force =     0.00006723   -0.00005176   -0.00003675
     atom   30 type  1   force =     0.00008153    0.00006326   -0.00004795
     atom   31 type  1   force =     0.00008056    0.00001743   -0.00004060
     atom   32 type  1   force =     0.00274939    0.00385290   -0.00269600
     atom   33 type  1   force =    -0.00002216    0.00002306    0.00003080
     atom   34 type  1   force =     0.00025637    0.00005006    0.00002785
     atom   35 type  1   force =     0.00002588    0.00008244    0.00002492
     atom   36 type  1   force =    -0.00006221   -0.01583850    0.00003854
     atom   37 type  1   force =     0.00002599    0.00004859    0.00002685
     atom   38 type  1   force =    -0.00006001    0.00003130    0.00005050
     atom   39 type  1   force =    -0.00001276   -0.00043607    0.00003831
     atom   40 type  1   force =     0.00392919    0.00276031    0.00270539
     atom   41 type  1   force =    -0.00002229    0.00000420    0.00003944
     atom   42 type  1   force =     0.00382055   -0.00247461   -0.00293346
     atom   43 type  1   force =     0.00001667    0.00001817   -0.00010282
     atom   44 type  1   force =    -0.00017424    0.00019985    0.00018290
     atom   45 type  1   force =     0.00003509    0.00001552   -0.00010267
     atom   46 type  1   force =     0.00005005    0.00018095    0.00018890
     atom   47 type  1   force =    -0.00001237    0.00001215    0.00004479
     atom   48 type  1   force =     0.00037028    0.00021089   -0.00026069
     atom   49 type  1   force =    -0.00004956   -0.00003851    0.00004272
     atom   50 type  1   force =     0.00003827   -0.00002674    0.00003860
     atom   51 type  1   force =     0.00392660   -0.00301025    0.00236832
     atom   52 type  1   force =     0.00009771   -0.00056083    0.00014776
     atom   53 type  1   force =     0.00024262   -0.00002752    0.00001771
     atom   54 type  1   force =    -0.00003044   -0.00003160    0.00003997
     atom   55 type  1   force =    -0.00016881   -0.00057469   -0.00007274
     atom   56 type  1   force =    -0.00008515   -0.00055648    0.00014112
     atom   57 type  1   force =     0.00016906    0.00028284    0.00007220
     atom   58 type  1   force =    -0.00019912    0.00026030   -0.00013710
     atom   59 type  1   force =     0.00001877    0.00026636    0.00008594
     atom   60 type  1   force =     0.00021205    0.00026938   -0.00014519
     atom   61 type  1   force =     0.00373511    0.00252324   -0.00247180
     atom   62 type  1   force =     0.00006509    0.00007992   -0.00004680
     atom   63 type  1   force =     0.00001684    0.00008064   -0.00004215
     atom   64 type  1   force =    -0.00004698    0.00007019   -0.00003830

     Total force =     0.027185     Total SCF correction =     0.000053

     Writing output data file pwscf.save
 
     init_run     :      8.98s CPU      9.24s WALL (       1 calls)
     electrons    :    300.67s CPU    319.05s WALL (       1 calls)
     forces       :      4.41s CPU      4.53s WALL (       1 calls)

     Called by init_run:
     wfcinit      :      8.37s CPU      8.52s WALL (       1 calls)
     potinit      :      0.24s CPU      0.24s WALL (       1 calls)

     Called by electrons:
     c_bands      :    270.57s CPU    285.24s WALL (      14 calls)
     sum_band     :     25.19s CPU     27.55s WALL (      14 calls)
     v_of_rho     :      0.79s CPU      0.79s WALL (      14 calls)
     newd         :      1.46s CPU      1.51s WALL (      14 calls)
     PAW_pot      :      2.36s CPU      2.37s WALL (      14 calls)
     mix_rho      :      0.46s CPU      0.47s WALL (      14 calls)

     Called by c_bands:
     init_us_2    :      2.36s CPU      2.38s WALL (     120 calls)
     cegterg      :    261.35s CPU    268.09s WALL (      56 calls)

     Called by sum_band:
     sum_band:bec :      0.05s CPU      0.05s WALL (      56 calls)
     addusdens    :      1.57s CPU      1.79s WALL (      14 calls)

     Called by *egterg:
     h_psi        :    119.78s CPU    120.15s WALL (     257 calls)
     s_psi        :     30.65s CPU     30.68s WALL (     257 calls)
     g_psi        :      1.17s CPU      1.18s WALL (     197 calls)
     cdiaghg      :     38.30s CPU     38.37s WALL (     249 calls)

     Called by h_psi:
     add_vuspsi   :     30.38s CPU     30.42s WALL (     257 calls)

     General routines
     calbec       :     48.06s CPU     48.16s WALL (     329 calls)
     fft          :      0.62s CPU      0.63s WALL (     195 calls)
     fftw         :     58.00s CPU     58.43s WALL (   57134 calls)
     davcio       :      0.00s CPU      0.02s WALL (       4 calls)
 
     Parallel routines
     fft_scatter  :     17.33s CPU     16.75s WALL (   57329 calls)
 
     PWSCF        :  5m14.35s CPU     5m54.80s WALL

 
   This run was terminated on:  13:50:22   3Feb2016            

=------------------------------------------------------------------------------=
   JOB DONE.
=------------------------------------------------------------------------------=
