
     Program PWSCF v.5.3.0 (svn rev. 11974) starts on  3Feb2016 at 13:36:57 

     This program is part of the open-source Quantum ESPRESSO suite
     for quantum simulation of materials; please cite
         "P. Giannozzi et al., J. Phys.:Condens. Matter 21 395502 (2009);
          URL http://www.quantum-espresso.org", 
     in publications or presentations arising from this work. More details at
     http://www.quantum-espresso.org/quote

     Parallel version (MPI), running on    16 processors
     R & G space division:  proc/nbgrp/npool/nimage =      16
     Reading input from Si.in

     Current dimensions of program PWSCF are:
     Max number of different atomic species (ntypx) = 10
     Max number of k-points (npk) =  40000
     Max angular momentum in pseudopotentials (lmaxx) =  3
               file Si.pbe-n-kjpaw_psl.0.1.UPF: wavefunction(s)  3S renormalized

     Subspace diagonalization in iterative solution of the eigenvalue problem:
     one sub-group per k-point group (pool) will be used
     scalapack distributed-memory algorithm (size of sub-group:  2*  2 procs)

 
     Parallelization info
     --------------------
     sticks:   dense  smooth     PW     G-vecs:    dense   smooth      PW
     Min         424     424    109                26332    26332    3467
     Max         425     425    110                26336    26336    3472
     Sum        6785    6785   1757               421349   421349   55515
 


     bravais-lattice index     =            0
     lattice parameter (alat)  =      20.6591  a.u.
     unit-cell volume          =    8817.2783 (a.u.)^3
     number of atoms/cell      =           64
     number of atomic types    =            1
     number of electrons       =       256.00
     number of Kohn-Sham states=          154
     kinetic-energy cutoff     =      50.0000  Ry
     charge density cutoff     =     200.0000  Ry
     convergence threshold     =      1.0E-09
     mixing beta               =       0.7000
     number of iterations used =            8  plain     mixing
     Exchange-correlation      =  SLA  PW   PBX  PBC ( 1  4  3  4 0 0)

     celldm(1)=  20.659106  celldm(2)=   0.000000  celldm(3)=   0.000000
     celldm(4)=   0.000000  celldm(5)=   0.000000  celldm(6)=   0.000000

     crystal axes: (cart. coord. in units of alat)
               a(1) = (   1.000000   0.000000   0.000000 )  
               a(2) = (   0.000000   1.000000   0.000000 )  
               a(3) = (   0.000000   0.000000   1.000000 )  

     reciprocal axes: (cart. coord. in units 2 pi/alat)
               b(1) = (  1.000000  0.000000  0.000000 )  
               b(2) = (  0.000000  1.000000  0.000000 )  
               b(3) = (  0.000000  0.000000  1.000000 )  


     PseudoPot. # 1 for Si read from file:
     /home/togo/espresso/pseudo/Si.pbe-n-kjpaw_psl.0.1.UPF
     MD5 check sum: b9d333a40e496bef61db012f150758bf
     Pseudo is Projector augmented-wave + core cor, Zval =  4.0
     Generated using "atomic" code by A. Dal Corso  v.5.0.2 svn rev. 9415
     Shape of augmentation charge: PSQ
     Using radial grid of 1141 points,  4 beta functions with: 
                l(1) =   0
                l(2) =   0
                l(3) =   1
                l(4) =   1
     Q(r) pseudized with 0 coefficients 


     atomic species   valence    mass     pseudopotential
        Si             4.00    28.08550     Si( 1.00)

     No symmetry found



   Cartesian axes

     site n.     atom                  positions (alat units)
         1           Si  tau(   1) = (   0.4404043   0.4375000   0.4375000  )
         2           Si  tau(   2) = (   0.9375000   0.4375000   0.4375000  )
         3           Si  tau(   3) = (   0.4375000   0.9375000   0.4375000  )
         4           Si  tau(   4) = (   0.9375000   0.9375000   0.4375000  )
         5           Si  tau(   5) = (   0.4375000   0.4375000   0.9375000  )
         6           Si  tau(   6) = (   0.9375000   0.4375000   0.9375000  )
         7           Si  tau(   7) = (   0.4375000   0.9375000   0.9375000  )
         8           Si  tau(   8) = (   0.9375000   0.9375000   0.9375000  )
         9           Si  tau(   9) = (   0.4375000   0.1875000   0.1875000  )
        10           Si  tau(  10) = (   0.9375000   0.1875000   0.1875000  )
        11           Si  tau(  11) = (   0.4375000   0.6875000   0.1875000  )
        12           Si  tau(  12) = (   0.9375000   0.6875000   0.1875000  )
        13           Si  tau(  13) = (   0.4375000   0.1875000   0.6875000  )
        14           Si  tau(  14) = (   0.9375000   0.1875000   0.6875000  )
        15           Si  tau(  15) = (   0.4375000   0.6875000   0.6875000  )
        16           Si  tau(  16) = (   0.9375000   0.6875000   0.6875000  )
        17           Si  tau(  17) = (   0.1875000   0.4404043   0.1875000  )
        18           Si  tau(  18) = (   0.6875000   0.4375000   0.1875000  )
        19           Si  tau(  19) = (   0.1875000   0.9375000   0.1875000  )
        20           Si  tau(  20) = (   0.6875000   0.9375000   0.1875000  )
        21           Si  tau(  21) = (   0.1875000   0.4375000   0.6875000  )
        22           Si  tau(  22) = (   0.6875000   0.4375000   0.6875000  )
        23           Si  tau(  23) = (   0.1875000   0.9375000   0.6875000  )
        24           Si  tau(  24) = (   0.6875000   0.9375000   0.6875000  )
        25           Si  tau(  25) = (   0.1875000   0.1875000   0.4375000  )
        26           Si  tau(  26) = (   0.6875000   0.1875000   0.4375000  )
        27           Si  tau(  27) = (   0.1875000   0.6875000   0.4375000  )
        28           Si  tau(  28) = (   0.6875000   0.6875000   0.4375000  )
        29           Si  tau(  29) = (   0.1875000   0.1875000   0.9375000  )
        30           Si  tau(  30) = (   0.6875000   0.1875000   0.9375000  )
        31           Si  tau(  31) = (   0.1875000   0.6875000   0.9375000  )
        32           Si  tau(  32) = (   0.6875000   0.6875000   0.9375000  )
        33           Si  tau(  33) = (   0.0625000   0.0625000   0.0625000  )
        34           Si  tau(  34) = (   0.5625000   0.0625000   0.0625000  )
        35           Si  tau(  35) = (   0.0625000   0.5625000   0.0625000  )
        36           Si  tau(  36) = (   0.5625000   0.5625000   0.0625000  )
        37           Si  tau(  37) = (   0.0625000   0.0625000   0.5625000  )
        38           Si  tau(  38) = (   0.5625000   0.0625000   0.5625000  )
        39           Si  tau(  39) = (   0.0625000   0.5625000   0.5625000  )
        40           Si  tau(  40) = (   0.5625000   0.5625000   0.5625000  )
        41           Si  tau(  41) = (   0.0625000   0.3125000   0.3125000  )
        42           Si  tau(  42) = (   0.5625000   0.3125000   0.3125000  )
        43           Si  tau(  43) = (   0.0625000   0.8125000   0.3125000  )
        44           Si  tau(  44) = (   0.5625000   0.8125000   0.3125000  )
        45           Si  tau(  45) = (   0.0625000   0.3125000   0.8125000  )
        46           Si  tau(  46) = (   0.5625000   0.3125000   0.8125000  )
        47           Si  tau(  47) = (   0.0625000   0.8125000   0.8125000  )
        48           Si  tau(  48) = (   0.5625000   0.8125000   0.8125000  )
        49           Si  tau(  49) = (   0.3125000   0.0625000   0.3125000  )
        50           Si  tau(  50) = (   0.8125000   0.0625000   0.3125000  )
        51           Si  tau(  51) = (   0.3125000   0.5625000   0.3125000  )
        52           Si  tau(  52) = (   0.8125000   0.5625000   0.3125000  )
        53           Si  tau(  53) = (   0.3125000   0.0625000   0.8125000  )
        54           Si  tau(  54) = (   0.8125000   0.0625000   0.8125000  )
        55           Si  tau(  55) = (   0.3125000   0.5625000   0.8125000  )
        56           Si  tau(  56) = (   0.8125000   0.5625000   0.8125000  )
        57           Si  tau(  57) = (   0.3125000   0.3125000   0.0625000  )
        58           Si  tau(  58) = (   0.8125000   0.3125000   0.0625000  )
        59           Si  tau(  59) = (   0.3125000   0.8125000   0.0625000  )
        60           Si  tau(  60) = (   0.8125000   0.8125000   0.0625000  )
        61           Si  tau(  61) = (   0.3125000   0.3125000   0.5625000  )
        62           Si  tau(  62) = (   0.8125000   0.3125000   0.5625000  )
        63           Si  tau(  63) = (   0.3125000   0.8125000   0.5625000  )
        64           Si  tau(  64) = (   0.8125000   0.8125000   0.5625000  )

     number of k points=     4  gaussian smearing, width (Ry)=  0.0100
                       cart. coord. in units 2pi/alat
        k(    1) = (   0.2500000   0.2500000   0.2500000), wk =   0.5000000
        k(    2) = (  -0.2500000  -0.2500000   0.2500000), wk =   0.5000000
        k(    3) = (  -0.2500000   0.2500000  -0.2500000), wk =   0.5000000
        k(    4) = (   0.2500000  -0.2500000  -0.2500000), wk =   0.5000000

     Dense  grid:   421349 G-vectors     FFT dimensions: (  96,  96,  96)

     Largest allocated arrays     est. size (Mb)     dimensions
        Kohn-Sham Wavefunctions         7.73 Mb     (    3289,  154)
        NL pseudopotentials            25.70 Mb     (    3289,  512)
        Each V/rho on FFT grid          0.84 Mb     (   55296)
        Each G-vector array             0.20 Mb     (   26336)
        G-vector shells                 0.01 Mb     (    1719)
     Largest temporary arrays     est. size (Mb)     dimensions
        Auxiliary wavefunctions        30.91 Mb     (    3289,  616)
        Each subspace H/S matrix        1.45 Mb     (     308,  308)
        Each <psi_i|beta_j> matrix      1.20 Mb     (     512,  154)
        Arrays for rho mixing           6.75 Mb     (   55296,    8)

     Check: negative/imaginary core charge=   -0.000001    0.000000

     Initial potential from superposition of free atoms

     starting charge  255.96421, renormalised to  256.00000
     Starting wfc are  256 randomized atomic wfcs
     Checking if some PAW data can be deallocated... 

     total cpu time spent up to now is       13.2 secs

     per-process dynamical memory:   114.8 Mb

     Self-consistent Calculation

     iteration #  1     ecut=    50.00 Ry     beta=0.70
     Davidson diagonalization with overlap
     ethr =  1.00E-02,  avg # of iterations =  3.0

     Threshold (ethr) on eigenvalues was too large:
     Diagonalizing with lowered threshold

     Davidson diagonalization with overlap
     ethr =  7.00E-04,  avg # of iterations =  1.0

     total cpu time spent up to now is       52.8 secs

     total energy              =   -2990.45690517 Ry
     Harris-Foulkes estimate   =   -2990.87685481 Ry
     estimated scf accuracy    <       1.77338439 Ry

     iteration #  2     ecut=    50.00 Ry     beta=0.70
     Davidson diagonalization with overlap
     ethr =  6.93E-04,  avg # of iterations =  1.0

     total cpu time spent up to now is       69.1 secs

     total energy              =   -2990.52358565 Ry
     Harris-Foulkes estimate   =   -2990.52748290 Ry
     estimated scf accuracy    <       0.07632774 Ry

     iteration #  3     ecut=    50.00 Ry     beta=0.70
     Davidson diagonalization with overlap
     ethr =  2.98E-05,  avg # of iterations = 10.0

     total cpu time spent up to now is      103.4 secs

     total energy              =   -2990.53047616 Ry
     Harris-Foulkes estimate   =   -2990.53138522 Ry
     estimated scf accuracy    <       0.00209672 Ry

     iteration #  4     ecut=    50.00 Ry     beta=0.70
     Davidson diagonalization with overlap
     ethr =  8.19E-07,  avg # of iterations =  8.0

     total cpu time spent up to now is      148.8 secs

     total energy              =   -2990.53014787 Ry
     Harris-Foulkes estimate   =   -2990.53296774 Ry
     estimated scf accuracy    <       0.00882174 Ry

     iteration #  5     ecut=    50.00 Ry     beta=0.70
     Davidson diagonalization with overlap
     ethr =  8.19E-07,  avg # of iterations =  4.8

     total cpu time spent up to now is      176.2 secs

     total energy              =   -2990.53146246 Ry
     Harris-Foulkes estimate   =   -2990.53160695 Ry
     estimated scf accuracy    <       0.00042409 Ry

     iteration #  6     ecut=    50.00 Ry     beta=0.70
     Davidson diagonalization with overlap
     ethr =  1.66E-07,  avg # of iterations =  2.0

     total cpu time spent up to now is      194.4 secs

     total energy              =   -2990.53153591 Ry
     Harris-Foulkes estimate   =   -2990.53155238 Ry
     estimated scf accuracy    <       0.00004780 Ry

     iteration #  7     ecut=    50.00 Ry     beta=0.70
     Davidson diagonalization with overlap
     ethr =  1.87E-08,  avg # of iterations =  3.0

     total cpu time spent up to now is      214.4 secs

     total energy              =   -2990.53154476 Ry
     Harris-Foulkes estimate   =   -2990.53154636 Ry
     estimated scf accuracy    <       0.00000360 Ry

     iteration #  8     ecut=    50.00 Ry     beta=0.70
     Davidson diagonalization with overlap
     ethr =  1.41E-09,  avg # of iterations =  3.0

     total cpu time spent up to now is      237.3 secs

     total energy              =   -2990.53154580 Ry
     Harris-Foulkes estimate   =   -2990.53154598 Ry
     estimated scf accuracy    <       0.00000041 Ry

     iteration #  9     ecut=    50.00 Ry     beta=0.70
     Davidson diagonalization with overlap
     ethr =  1.59E-10,  avg # of iterations =  3.0

     total cpu time spent up to now is      258.0 secs

     total energy              =   -2990.53154580 Ry
     Harris-Foulkes estimate   =   -2990.53154590 Ry
     estimated scf accuracy    <       0.00000016 Ry

     iteration # 10     ecut=    50.00 Ry     beta=0.70
     Davidson diagonalization with overlap
     ethr =  6.08E-11,  avg # of iterations =  3.0

     total cpu time spent up to now is      277.2 secs

     total energy              =   -2990.53154579 Ry
     Harris-Foulkes estimate   =   -2990.53154584 Ry
     estimated scf accuracy    <       0.00000007 Ry

     iteration # 11     ecut=    50.00 Ry     beta=0.70
     Davidson diagonalization with overlap
     ethr =  2.54E-11,  avg # of iterations =  2.0

     total cpu time spent up to now is      294.8 secs

     total energy              =   -2990.53154580 Ry
     Harris-Foulkes estimate   =   -2990.53154580 Ry
     estimated scf accuracy    <          2.5E-09 Ry

     iteration # 12     ecut=    50.00 Ry     beta=0.70
     Davidson diagonalization with overlap
     ethr =  9.67E-13,  avg # of iterations =  3.0

     total cpu time spent up to now is      319.7 secs

     total energy              =   -2990.53154580 Ry
     Harris-Foulkes estimate   =   -2990.53154581 Ry
     estimated scf accuracy    <          1.5E-09 Ry

     iteration # 13     ecut=    50.00 Ry     beta=0.70
     Davidson diagonalization with overlap
     ethr =  6.01E-13,  avg # of iterations =  2.0

     total cpu time spent up to now is      338.9 secs

     End of self-consistent calculation

          k = 0.2500 0.2500 0.2500 ( 52563 PWs)   bands (ev):

    -5.6250  -5.0993  -5.0967  -5.0934  -4.5995  -4.5968  -4.5936  -4.1620
    -4.0662  -4.0633  -4.0597  -3.6569  -3.6511  -3.6464  -3.6455  -3.6441
    -3.6412  -3.4602  -3.4542  -3.4520  -2.9607  -2.9575  -2.9520  -2.5954
    -2.5876  -2.5859  -2.4290  -2.4253  -2.4202  -2.4190  -2.4173  -2.4158
    -0.8859  -0.8814  -0.8776  -0.8759  -0.8746  -0.8718  -0.7856  -0.7776
    -0.7755  -0.6639  -0.6615  -0.6557  -0.5879  -0.5783  -0.5748   0.1226
     0.2034   0.2094   0.2109   0.2136   0.2160   0.2203   1.0759   1.0851
     1.0879   1.4147   1.4189   1.4215   2.0246   2.0275   2.0286   2.0297
     2.0318   2.0330   2.0873   2.0891   2.0920   2.6353   2.6389   2.6402
     2.7385   2.7418   2.7435   2.7452   2.7477   2.7497   2.7959   2.7984
     2.8023   3.1021   3.1056   3.1071   3.1081   3.1086   3.1129   3.3711
     3.3733   3.3743   3.3844   3.3879   3.3902   3.7295   3.7325   3.7358
     3.7489   3.7546   3.7565   3.8387   3.8401   3.8433   4.1028   4.1080
     4.1125   4.1145   4.1149   4.1163   4.1529   4.1544   4.1579   4.4091
     4.4709   4.4739   4.4750   4.7141   4.7157   4.7196   4.7674   4.7768
     4.7783   4.9350   4.9399   5.2430   5.2455   5.2506   5.7236   5.7293
     6.9346   6.9386   6.9406   7.3733   7.3785   7.3808   7.6002   7.8597
     7.8644   7.8663   7.9869   7.9888   7.9949   8.1490   8.1509   8.1557
     8.1670   8.1706   8.1719   8.3938   8.3966   8.4001   8.4029   8.4037
     8.4059   8.4507

          k =-0.2500-0.2500 0.2500 ( 52563 PWs)   bands (ev):

    -5.6251  -5.0994  -5.0959  -5.0933  -4.5998  -4.5965  -4.5941  -4.1642
    -4.0670  -4.0632  -4.0608  -3.6523  -3.6500  -3.6491  -3.6470  -3.6420
    -3.6391  -3.4576  -3.4554  -3.4493  -2.9636  -2.9600  -2.9577  -2.5925
    -2.5909  -2.5834  -2.4259  -2.4246  -2.4229  -2.4205  -2.4174  -2.4114
    -0.8863  -0.8836  -0.8803  -0.8781  -0.8756  -0.8692  -0.7854  -0.7831
    -0.7750  -0.6682  -0.6630  -0.6605  -0.5770  -0.5722  -0.5662   0.1300
     0.2015   0.2046   0.2080   0.2099   0.2129   0.2186   1.0830   1.0878
     1.0925   1.4152   1.4196   1.4201   2.0236   2.0276   2.0287   2.0298
     2.0311   2.0331   2.0849   2.0865   2.0901   2.6399   2.6413   2.6450
     2.7354   2.7391   2.7407   2.7440   2.7453   2.7463   2.7911   2.7932
     2.7987   3.1038   3.1056   3.1063   3.1073   3.1108   3.1127   3.3690
     3.3698   3.3726   3.3822   3.3862   3.3866   3.7339   3.7365   3.7391
     3.7563   3.7586   3.7643   3.8355   3.8383   3.8412   4.1124   4.1131
     4.1139   4.1162   4.1202   4.1257   4.1489   4.1525   4.1562   4.4169
     4.4668   4.4679   4.4714   4.7094   4.7127   4.7154   4.7791   4.7842
     4.7881   4.9325   4.9376   5.2363   5.2413   5.2449   5.7189   5.7244
     6.9317   6.9339   6.9380   7.3693   7.3780   7.3805   7.5972   7.8546
     7.8615   7.8643   7.9883   7.9946   7.9965   8.1456   8.1525   8.1539
     8.1665   8.1682   8.1712   8.3985   8.3999   8.4028   8.4057   8.4082
     8.4098   8.4459

          k =-0.2500 0.2500-0.2500 ( 52563 PWs)   bands (ev):

    -5.6250  -5.0997  -5.0955  -5.0938  -4.6002  -4.5960  -4.5941  -4.1632
    -4.0670  -4.0624  -4.0605  -3.6541  -3.6497  -3.6466  -3.6457  -3.6448
    -3.6415  -3.4590  -3.4549  -3.4505  -2.9638  -2.9575  -2.9545  -2.5930
    -2.5892  -2.5857  -2.4284  -2.4237  -2.4205  -2.4201  -2.4185  -2.4135
    -0.8881  -0.8818  -0.8781  -0.8775  -0.8752  -0.8694  -0.7841  -0.7806
    -0.7766  -0.6672  -0.6622  -0.6571  -0.5811  -0.5751  -0.5718   0.1262
     0.2016   0.2061   0.2111   0.2123   0.2148   0.2189   1.0799   1.0860
     1.0902   1.4138   1.4186   1.4227   2.0242   2.0268   2.0287   2.0301
     2.0306   2.0340   2.0853   2.0885   2.0911   2.6378   2.6399   2.6425
     2.7373   2.7389   2.7420   2.7448   2.7468   2.7486   2.7926   2.7968
     2.8006   3.1012   3.1052   3.1081   3.1083   3.1108   3.1119   3.3690
     3.3723   3.3740   3.3819   3.3861   3.3904   3.7318   3.7344   3.7374
     3.7533   3.7568   3.7599   3.8356   3.8401   3.8428   4.1064   4.1126
     4.1140   4.1150   4.1167   4.1205   4.1494   4.1543   4.1575   4.4129
     4.4674   4.4716   4.4741   4.7101   4.7148   4.7184   4.7743   4.7790
     4.7836   4.9319   4.9406   5.2380   5.2440   5.2488   5.7192   5.7289
     6.9324   6.9367   6.9396   7.3712   7.3770   7.3819   7.5987   7.8571
     7.8619   7.8666   7.9873   7.9918   7.9957   8.1475   8.1513   8.1552
     8.1653   8.1701   8.1722   8.3948   8.4001   8.4026   8.4033   8.4052
     8.4078   8.4485

          k = 0.2500-0.2500-0.2500 ( 52563 PWs)   bands (ev):

    -5.6250  -5.0990  -5.0970  -5.0930  -4.5991  -4.5974  -4.5937  -4.1631
    -4.0659  -4.0642  -4.0600  -3.6560  -3.6491  -3.6470  -3.6467  -3.6440
    -3.6394  -3.4590  -3.4549  -3.4505  -2.9608  -2.9593  -2.9555  -2.5930
    -2.5892  -2.5857  -2.4296  -2.4228  -2.4209  -2.4205  -2.4185  -2.4124
    -0.8878  -0.8812  -0.8783  -0.8774  -0.8753  -0.8701  -0.7839  -0.7805
    -0.7767  -0.6672  -0.6623  -0.6570  -0.5838  -0.5757  -0.5685   0.1263
     0.2028   0.2071   0.2101   0.2116   0.2148   0.2182   1.0792   1.0855
     1.0914   1.4140   1.4184   1.4225   2.0239   2.0266   2.0283   2.0302
     2.0310   2.0344   2.0856   2.0885   2.0910   2.6377   2.6403   2.6423
     2.7372   2.7403   2.7418   2.7444   2.7461   2.7486   2.7927   2.7961
     2.8011   3.1019   3.1057   3.1072   3.1077   3.1092   3.1136   3.3693
     3.3714   3.3747   3.3823   3.3862   3.3899   3.7311   3.7350   3.7374
     3.7527   3.7560   3.7611   3.8367   3.8401   3.8418   4.1057   4.1123
     4.1137   4.1144   4.1164   4.1226   4.1506   4.1544   4.1565   4.4133
     4.4676   4.4706   4.4746   4.7113   4.7149   4.7172   4.7730   4.7788
     4.7852   4.9319   4.9406   5.2393   5.2442   5.2473   5.7191   5.7289
     6.9330   6.9356   6.9400   7.3712   7.3782   7.3808   7.5987   7.8567
     7.8631   7.8657   7.9877   7.9918   7.9955   8.1470   8.1518   8.1546
     8.1663   8.1680   8.1737   8.3966   8.3981   8.4012   8.4038   8.4058
     8.4087   8.4484

     the Fermi energy is     6.3278 ev

!    total energy              =   -2990.53154581 Ry
     Harris-Foulkes estimate   =   -2990.53154580 Ry
     estimated scf accuracy    <          3.0E-10 Ry

     total all-electron energy =    -37124.667099 Ry

     The total energy is the sum of the following terms:

     one-electron contribution =     178.60655110 Ry
     hartree contribution      =      35.70143782 Ry
     xc contribution           =    -391.44199819 Ry
     ewald contribution        =    -534.00623057 Ry
     one-center paw contrib.   =   -2279.39130597 Ry
     smearing contrib. (-TS)   =       0.00000000 Ry

     convergence has been achieved in  13 iterations

     Forces acting on atoms (Ry/au):

     atom    1 type  1   force =    -0.01600004   -0.00052826   -0.00011393
     atom    2 type  1   force =    -0.00008656   -0.00052344    0.00010942
     atom    3 type  1   force =     0.00004538   -0.00000053   -0.00000893
     atom    4 type  1   force =    -0.00001704    0.00000068    0.00000989
     atom    5 type  1   force =     0.00016396   -0.00052347   -0.00010937
     atom    6 type  1   force =     0.00010684   -0.00052762    0.00011482
     atom    7 type  1   force =    -0.00046454    0.00000063   -0.00000919
     atom    8 type  1   force =     0.00003368   -0.00000091    0.00000904
     atom    9 type  1   force =    -0.00075658    0.00034579    0.00022344
     atom   10 type  1   force =     0.00022749    0.00024131   -0.00010035
     atom   11 type  1   force =    -0.00029164    0.00034762    0.00000297
     atom   12 type  1   force =    -0.00023209    0.00024730   -0.00012395
     atom   13 type  1   force =    -0.00044684   -0.00006756    0.00011922
     atom   14 type  1   force =    -0.00007616    0.00003279    0.00000025
     atom   15 type  1   force =    -0.00060291   -0.00007083   -0.00010405
     atom   16 type  1   force =     0.00007519    0.00003363   -0.00001857
     atom   17 type  1   force =     0.00023504   -0.01600378    0.00022494
     atom   18 type  1   force =     0.00023854   -0.00005823   -0.00023320
     atom   19 type  1   force =     0.00004282    0.00001267   -0.00007736
     atom   20 type  1   force =     0.00004226   -0.00001780    0.00007584
     atom   21 type  1   force =     0.00023154    0.00016433   -0.00022731
     atom   22 type  1   force =     0.00023804   -0.00036043    0.00023219
     atom   23 type  1   force =     0.00004255    0.00000291    0.00007703
     atom   24 type  1   force =     0.00004298    0.00003341   -0.00007610
     atom   25 type  1   force =     0.00034147    0.00045939   -0.00033789
     atom   26 type  1   force =     0.00024731   -0.00018992   -0.00003548
     atom   27 type  1   force =     0.00034522    0.00000789    0.00033832
     atom   28 type  1   force =     0.00024772    0.00027587    0.00003843
     atom   29 type  1   force =    -0.00006671    0.00015449    0.00021833
     atom   30 type  1   force =     0.00003306    0.00011889   -0.00008707
     atom   31 type  1   force =    -0.00007092    0.00031450   -0.00022233
     atom   32 type  1   force =     0.00003346   -0.00003304    0.00008590
     atom   33 type  1   force =    -0.00005913    0.00001874   -0.00000708
     atom   34 type  1   force =     0.00023044    0.00005386    0.00000078
     atom   35 type  1   force =    -0.00268059    0.00395636   -0.00268075
     atom   36 type  1   force =    -0.00009932   -0.00001008   -0.00001150
     atom   37 type  1   force =     0.00000004    0.00005161    0.00000195
     atom   38 type  1   force =    -0.00009191    0.00001680    0.00001926
     atom   39 type  1   force =    -0.00006297   -0.00002251   -0.00000108
     atom   40 type  1   force =     0.00390065    0.00296271    0.00267943
     atom   41 type  1   force =     0.00246968    0.00377467   -0.00252076
     atom   42 type  1   force =     0.00396535   -0.00276305   -0.00275744
     atom   43 type  1   force =     0.00006380   -0.00003786   -0.00006443
     atom   44 type  1   force =    -0.00003336   -0.00001109   -0.00007873
     atom   45 type  1   force =     0.00007820   -0.00008528   -0.00006212
     atom   46 type  1   force =    -0.00003328    0.00020303   -0.00006597
     atom   47 type  1   force =     0.00000665   -0.00000293   -0.00005744
     atom   48 type  1   force =     0.00028656   -0.00004942   -0.00005833
     atom   49 type  1   force =    -0.00002044   -0.00004928    0.00008959
     atom   50 type  1   force =     0.00005333   -0.00000097    0.00005540
     atom   51 type  1   force =     0.00651164    0.00144988    0.00519056
     atom   52 type  1   force =     0.00002628   -0.00009792    0.00008754
     atom   53 type  1   force =     0.00027950   -0.00000134    0.00005253
     atom   54 type  1   force =     0.00000955   -0.00005280    0.00006175
     atom   55 type  1   force =    -0.00000791   -0.00011225    0.00007671
     atom   56 type  1   force =     0.00005577    0.00022765    0.00005475
     atom   57 type  1   force =    -0.00254136    0.00386441    0.00244459
     atom   58 type  1   force =    -0.00000852   -0.00002874    0.00002454
     atom   59 type  1   force =     0.00021522    0.00001482    0.00001058
     atom   60 type  1   force =    -0.00004856    0.00005815   -0.00000234
     atom   61 type  1   force =     0.00376114    0.00242269   -0.00244382
     atom   62 type  1   force =    -0.00003989    0.00029102   -0.00001002
     atom   63 type  1   force =    -0.00008634    0.00006559   -0.00002486
     atom   64 type  1   force =    -0.00000275    0.00000526    0.00000174

     Total force =     0.027594     Total SCF correction =     0.000033

     Writing output data file pwscf.save
 
     init_run     :      9.99s CPU     13.03s WALL (       1 calls)
     electrons    :    313.06s CPU    325.90s WALL (       1 calls)
     forces       :      4.95s CPU      5.10s WALL (       1 calls)

     Called by init_run:
     wfcinit      :      9.24s CPU     12.19s WALL (       1 calls)
     potinit      :      0.28s CPU      0.29s WALL (       1 calls)

     Called by electrons:
     c_bands      :    279.99s CPU    292.08s WALL (      14 calls)
     sum_band     :     27.50s CPU     27.99s WALL (      14 calls)
     v_of_rho     :      0.95s CPU      0.97s WALL (      14 calls)
     newd         :      1.83s CPU      1.88s WALL (      14 calls)
     PAW_pot      :      2.36s CPU      2.37s WALL (      14 calls)
     mix_rho      :      0.57s CPU      0.59s WALL (      14 calls)

     Called by c_bands:
     init_us_2    :      5.22s CPU      5.28s WALL (     120 calls)
     cegterg      :    271.62s CPU    279.60s WALL (      56 calls)

     Called by sum_band:
     sum_band:bec :      0.04s CPU      0.04s WALL (      56 calls)
     addusdens    :      1.85s CPU      2.11s WALL (      14 calls)

     Called by *egterg:
     h_psi        :    124.83s CPU    125.39s WALL (     255 calls)
     s_psi        :     31.57s CPU     31.64s WALL (     255 calls)
     g_psi        :      1.21s CPU      1.21s WALL (     195 calls)
     cdiaghg      :     39.80s CPU     39.98s WALL (     247 calls)

     Called by h_psi:
     add_vuspsi   :     32.41s CPU     32.51s WALL (     255 calls)

     General routines
     calbec       :     49.86s CPU     50.23s WALL (     327 calls)
     fft          :      0.46s CPU      0.46s WALL (     195 calls)
     fftw         :     58.38s CPU     58.84s WALL (   56984 calls)
     davcio       :      0.00s CPU      0.02s WALL (       4 calls)
 
     Parallel routines
     fft_scatter  :     18.10s CPU     17.37s WALL (   57179 calls)
 
     PWSCF        :  5m28.32s CPU     6m 9.47s WALL

 
   This run was terminated on:  13:43: 6   3Feb2016            

=------------------------------------------------------------------------------=
   JOB DONE.
=------------------------------------------------------------------------------=
