<?xml version="1.0" encoding="ISO-8859-1"?>
<modeling>
 <generator>
  <i name="program" type="string">vasp </i>
  <i name="version" type="string">5.4.1  </i>
  <i name="subversion" type="string">05Feb16 (build Mar 26 2016 11:58:25) complex                          parallel </i>
  <i name="platform" type="string">IFC91_ompi </i>
  <i name="date" type="string">2017 03 12 </i>
  <i name="time" type="string">12:13:57 </i>
 </generator>
 <incar>
  <i type="string" name="PREC">accurate</i>
  <i type="int" name="IALGO">    38</i>
  <i type="logical" name="ADDGRID"> T  </i>
  <i type="int" name="NELMIN">     5</i>
  <i type="int" name="IBRION">    -1</i>
  <i name="EDIFF">      0.00000001</i>
  <i name="ENCUT">    300.00000000</i>
  <i type="logical" name="LREAL"> F  </i>
  <i type="int" name="ISMEAR">     0</i>
  <i name="SIGMA">      0.05000000</i>
  <i type="logical" name="LWAVE"> F  </i>
  <i type="logical" name="LCHARG"> F  </i>
  <v type="int" name="KPOINT_BSE">    -1     0     0     0</v>
 </incar>
 <kpoints>
  <generation param="Monkhorst-Pack">
   <v type="int" name="divisions">       2        2        2 </v>
   <v name="usershift">      0.00000000       0.00000000       0.00000000 </v>
   <v name="genvec1">      0.50000000       0.00000000       0.00000000 </v>
   <v name="genvec2">      0.00000000       0.50000000       0.00000000 </v>
   <v name="genvec3">      0.00000000       0.00000000       0.50000000 </v>
   <v name="shift">      0.50000000       0.50000000       0.50000000 </v>
  </generation>
  <varray name="kpointlist" >
   <v>       0.25000000       0.25000000       0.25000000 </v>
   <v>      -0.25000000       0.25000000       0.25000000 </v>
   <v>       0.25000000      -0.25000000       0.25000000 </v>
  </varray>
  <varray name="weights" >
   <v>       0.25000000 </v>
   <v>       0.50000000 </v>
   <v>       0.25000000 </v>
  </varray>
 </kpoints>
 <parameters>
  <separator name="general" >
   <i type="string" name="SYSTEM">unknown system</i>
   <i type="logical" name="LCOMPAT"> F  </i>
  </separator>
  <separator name="electronic" >
   <i type="string" name="PREC">accura</i>
   <i name="ENMAX">    300.00000000</i>
   <i name="ENAUG">    322.06900000</i>
   <i name="EDIFF">      0.00000001</i>
   <i type="int" name="IALGO">    38</i>
   <i type="int" name="IWAVPR">    10</i>
   <i type="int" name="NBANDS">   164</i>
   <i name="NELECT">    256.00000000</i>
   <i type="int" name="TURBO">     0</i>
   <i type="int" name="IRESTART">     0</i>
   <i type="int" name="NREBOOT">     0</i>
   <i type="int" name="NMIN">     0</i>
   <i name="EREF">      0.00000000</i>
   <separator name="electronic smearing" >
    <i type="int" name="ISMEAR">     0</i>
    <i name="SIGMA">      0.05000000</i>
    <i name="KSPACING">      0.50000000</i>
    <i type="logical" name="KGAMMA"> T  </i>
   </separator>
   <separator name="electronic projectors" >
    <i type="logical" name="LREAL"> F  </i>
    <v name="ROPT">      0.00000000</v>
    <i type="int" name="LMAXPAW">  -100</i>
    <i type="int" name="LMAXMIX">     2</i>
    <i type="logical" name="NLSPLINE"> F  </i>
   </separator>
   <separator name="electronic startup" >
    <i type="int" name="ISTART">     0</i>
    <i type="int" name="ICHARG">     2</i>
    <i type="int" name="INIWAV">     1</i>
   </separator>
   <separator name="electronic spin" >
    <i type="int" name="ISPIN">     1</i>
    <i type="logical" name="LNONCOLLINEAR"> F  </i>
    <v name="MAGMOM">      1.00000000      1.00000000      1.00000000      1.00000000      1.00000000      1.00000000      1.00000000      1.00000000      1.00000000      1.00000000      1.00000000      1.00000000      1.00000000      1.00000000      1.00000000      1.00000000      1.00000000      1.00000000      1.00000000      1.00000000
      1.00000000      1.00000000      1.00000000      1.00000000      1.00000000      1.00000000      1.00000000      1.00000000      1.00000000      1.00000000      1.00000000      1.00000000      1.00000000      1.00000000      1.00000000      1.00000000      1.00000000      1.00000000      1.00000000      1.00000000
      1.00000000      1.00000000      1.00000000      1.00000000      1.00000000      1.00000000      1.00000000      1.00000000      1.00000000      1.00000000      1.00000000      1.00000000      1.00000000      1.00000000      1.00000000      1.00000000      1.00000000      1.00000000      1.00000000      1.00000000
      1.00000000      1.00000000      1.00000000      1.00000000</v>
    <i name="NUPDOWN">     -1.00000000</i>
    <i type="logical" name="LSORBIT"> F  </i>
    <v name="SAXIS">      0.00000000      0.00000000      1.00000000</v>
    <i type="logical" name="LSPIRAL"> F  </i>
    <v name="QSPIRAL">      0.00000000      0.00000000      0.00000000</v>
    <i type="logical" name="LZEROZ"> F  </i>
   </separator>
   <separator name="electronic exchange-correlation" >
    <i type="logical" name="LASPH"> F  </i>
    <i type="logical" name="LMETAGGA"> F  </i>
   </separator>
   <separator name="electronic convergence" >
    <i type="int" name="NELM">    60</i>
    <i type="int" name="NELMDL">    -5</i>
    <i type="int" name="NELMIN">     5</i>
    <i name="ENINI">    300.00000000</i>
    <separator name="electronic convergence detail" >
     <i type="logical" name="LDIAG"> T  </i>
     <i type="logical" name="LSUBROT"> F  </i>
     <i name="WEIMIN">      0.00000000</i>
     <i name="EBREAK">      0.00000000</i>
     <i name="DEPER">      0.30000000</i>
     <i type="int" name="NRMM">     4</i>
     <i name="TIME">      0.40000000</i>
    </separator>
   </separator>
   <separator name="electronic mixer" >
    <i name="AMIX">      0.40000000</i>
    <i name="BMIX">      1.00000000</i>
    <i name="AMIN">      0.10000000</i>
    <i name="AMIX_MAG">      1.60000000</i>
    <i name="BMIX_MAG">      1.00000000</i>
    <separator name="electronic mixer details" >
     <i type="int" name="IMIX">     4</i>
     <i type="logical" name="MIXFIRST"> F  </i>
     <i type="int" name="MAXMIX">   -45</i>
     <i name="WC">    100.00000000</i>
     <i type="int" name="INIMIX">     1</i>
     <i type="int" name="MIXPRE">     1</i>
     <i type="int" name="MREMOVE">     5</i>
    </separator>
   </separator>
   <separator name="electronic dipolcorrection" >
    <i type="logical" name="LDIPOL"> F  </i>
    <i type="logical" name="LMONO"> F  </i>
    <i type="int" name="IDIPOL">     0</i>
    <i name="EPSILON">      1.00000000</i>
    <v name="DIPOL">   -100.00000000   -100.00000000   -100.00000000</v>
    <i name="EFIELD">      0.00000000</i>
   </separator>
  </separator>
  <separator name="grids" >
   <i type="int" name="NGX">    64</i>
   <i type="int" name="NGY">    64</i>
   <i type="int" name="NGZ">    64</i>
   <i type="int" name="NGXF">   128</i>
   <i type="int" name="NGYF">   128</i>
   <i type="int" name="NGZF">   128</i>
   <i type="logical" name="ADDGRID"> T  </i>
  </separator>
  <separator name="ionic" >
   <i type="int" name="NSW">     0</i>
   <i type="int" name="IBRION">    -1</i>
   <i type="int" name="ISIF">     2</i>
   <i name="PSTRESS">      0.00000000</i>
   <i name="EDIFFG">      0.00000010</i>
   <i type="int" name="NFREE">     0</i>
   <i name="POTIM">      0.50000000</i>
   <i name="SMASS">     -3.00000000</i>
   <i name="SCALEE">      1.00000000</i>
  </separator>
  <separator name="ionic md" >
   <i name="TEBEG">      0.00010000</i>
   <i name="TEEND">      0.00010000</i>
   <i type="int" name="NBLOCK">     1</i>
   <i type="int" name="KBLOCK">     1</i>
   <i type="int" name="NPACO">   256</i>
   <i name="APACO">     16.00000000</i>
  </separator>
  <separator name="symmetry" >
   <i type="int" name="ISYM">     2</i>
   <i name="SYMPREC">      0.00001000</i>
  </separator>
  <separator name="dos" >
   <i type="logical" name="LORBIT"> F  </i>
   <v name="RWIGS">     -1.00000000</v>
   <i type="int" name="NEDOS">   301</i>
   <i name="EMIN">     10.00000000</i>
   <i name="EMAX">    -10.00000000</i>
   <i name="EFERMI">      0.00000000</i>
  </separator>
  <separator name="writing" >
   <i type="int" name="NWRITE">     2</i>
   <i type="logical" name="LWAVE"> F  </i>
   <i type="logical" name="LCHARG"> F  </i>
   <i type="logical" name="LPARD"> F  </i>
   <i type="logical" name="LVTOT"> F  </i>
   <i type="logical" name="LVHAR"> F  </i>
   <i type="logical" name="LELF"> F  </i>
   <i type="logical" name="LOPTICS"> F  </i>
   <v name="STM">      0.00000000      0.00000000      0.00000000      0.00000000      0.00000000      0.00000000      0.00000000</v>
  </separator>
  <separator name="performance" >
   <i type="int" name="NPAR">     4</i>
   <i type="int" name="NSIM">     4</i>
   <i type="int" name="NBLK">    -1</i>
   <i type="logical" name="LPLANE"> T  </i>
   <i type="logical" name="LSCALAPACK"> T  </i>
   <i type="logical" name="LSCAAWARE"> F  </i>
   <i type="logical" name="LSCALU"> F  </i>
   <i type="logical" name="LASYNC"> F  </i>
   <i type="logical" name="LORBITALREAL"> F  </i>
  </separator>
  <separator name="miscellaneous" >
   <i type="int" name="IDIOT">     3</i>
   <i type="logical" name="LMUSIC"> F  </i>
   <v name="POMASS">     28.08500000</v>
   <v name="DARWINR">      0.00000000</v>
   <v name="DARWINV">      1.00000000</v>
   <i type="logical" name="LCORR"> T  </i>
  </separator>
  <i type="logical" name="GGA_COMPAT"> T  </i>
  <i type="logical" name="LBERRY"> F  </i>
  <i type="int" name="ICORELEVEL">     0</i>
  <i type="logical" name="LDAU"> F  </i>
  <i type="int" name="I_CONSTRAINED_M">     0</i>
  <separator name="electronic exchange-correlation" >
   <i type="string" name="GGA">--</i>
   <i type="int" name="VOSKOWN">     0</i>
   <i type="logical" name="LHFCALC"> F  </i>
   <i type="string" name="PRECFOCK"></i>
   <i type="logical" name="LSYMGRAD"> F  </i>
   <i type="logical" name="LHFONE"> F  </i>
   <i type="logical" name="LRHFCALC"> F  </i>
   <i type="logical" name="LTHOMAS"> F  </i>
   <i type="logical" name="LMODELHF"> F  </i>
   <i name="ENCUT4O">     -1.00000000</i>
   <i type="int" name="EXXOEP">     0</i>
   <i type="int" name="FOURORBIT">     0</i>
   <i name="AEXX">      0.00000000</i>
   <i name="HFALPHA">      0.00000000</i>
   <i name="MCALPHA">      0.00000000</i>
   <i name="ALDAX">      1.00000000</i>
   <i name="AGGAX">      1.00000000</i>
   <i name="ALDAC">      1.00000000</i>
   <i name="AGGAC">      1.00000000</i>
   <i type="int" name="NKREDX">     1</i>
   <i type="int" name="NKREDY">     1</i>
   <i type="int" name="NKREDZ">     1</i>
   <i type="logical" name="SHIFTRED"> F  </i>
   <i type="logical" name="ODDONLY"> F  </i>
   <i type="logical" name="EVENONLY"> F  </i>
   <i type="int" name="LMAXFOCK">     0</i>
   <i type="int" name="NMAXFOCKAE">     0</i>
   <i type="logical" name="LFOCKAEDFT"> F  </i>
   <i name="HFSCREEN">      0.00000000</i>
   <i name="HFSCREENC">      0.00000000</i>
   <i type="int" name="NBANDSGWLOW">     0</i>
  </separator>
  <separator name="vdW DFT" >
   <i type="logical" name="LUSE_VDW"> F  </i>
   <i name="Zab_VDW">     -0.84910000</i>
   <i name="PARAM1">      0.12340000</i>
   <i name="PARAM2">      1.00000000</i>
   <i name="PARAM3">      0.00000000</i>
  </separator>
  <separator name="model GW" >
   <i type="int" name="MODEL_GW">     0</i>
   <i name="MODEL_EPS0">     12.24990743</i>
   <i name="MODEL_ALPHA">      1.00000000</i>
  </separator>
  <separator name="linear response parameters" >
   <i type="logical" name="LEPSILON"> F  </i>
   <i type="logical" name="LRPA"> F  </i>
   <i type="logical" name="LNABLA"> F  </i>
   <i type="logical" name="LVEL"> F  </i>
   <i type="int" name="KINTER">     0</i>
   <i name="CSHIFT">      0.10000000</i>
   <i name="OMEGAMAX">     -1.00000000</i>
   <i name="DEG_THRESHOLD">      0.00200000</i>
  </separator>
  <separator name="orbital magnetization" >
   <i type="logical" name="NUCIND"> F  </i>
   <v name="MAGPOS">      0.00000000      0.00000000      0.00000000</v>
   <i type="logical" name="LNICSALL"> T  </i>
   <i type="logical" name="ORBITALMAG"> F  </i>
   <i type="logical" name="LMAGBLOCH"> F  </i>
   <i type="logical" name="LCHIMAG"> F  </i>
   <i type="logical" name="LGAUGE"> T  </i>
   <i type="int" name="MAGATOM">     0</i>
   <v name="MAGDIPOL">      0.00000000      0.00000000      0.00000000</v>
   <v name="AVECCONST">      0.00000000      0.00000000      0.00000000</v>
  </separator>
  <separator name="response functions" >
   <i type="logical" name="LADDER"> F  </i>
   <i type="logical" name="LFXC"> F  </i>
   <i type="logical" name="LHARTREE"> T  </i>
   <i type="int" name="IBSE">     0</i>
   <v type="int" name="KPOINT">    -1     0     0     0</v>
   <i type="logical" name="LTCTE"> F  </i>
   <i type="logical" name="LTETE"> F  </i>
   <i type="logical" name="LTRIPLET"> F  </i>
   <i type="logical" name="LFXCEPS"> F  </i>
   <i type="logical" name="LFXHEG"> F  </i>
   <i type="int" name="NATURALO">     0</i>
   <i type="logical" name="L2ORDER"> F  </i>
   <i type="logical" name="LUSEW"> F  </i>
   <i name="ENCUTGW">     -2.00000000</i>
   <i name="ENCUTGWSOFT">     -2.00000000</i>
   <i name="ENCUTLF">     -1.00000000</i>
   <i type="int" name="LMAXMP2">    -1</i>
   <i name="SCISSOR">      0.00000000</i>
   <i type="int" name="NOMEGA">     0</i>
   <i type="int" name="NOMEGAR">     0</i>
   <i type="int" name="NBANDSGW">    -1</i>
   <i type="int" name="NBANDSO">    -1</i>
   <i type="int" name="NBANDSV">    -1</i>
   <i type="int" name="NELM">     1</i>
   <i type="int" name="NELMHF">     1</i>
   <i type="int" name="DIM">     3</i>
   <i type="int" name="ANTIRES">     0</i>
   <i name="OMEGAMAX">    -30.00000000</i>
   <i name="OMEGAMIN">    -30.00000000</i>
   <i name="OMEGATL">   -200.00000000</i>
   <i type="int" name="OMEGAGRID">     0</i>
   <i name="CSHIFT">     -0.10000000</i>
   <i type="logical" name="SELFENERGY"> F  </i>
   <i type="logical" name="LSPECTRAL"> F  </i>
   <i type="logical" name="LSPECTRALGW"> F  </i>
   <i type="logical" name="LSINGLES"> F  </i>
   <i type="logical" name="LFERMIGW"> F  </i>
   <i type="logical" name="ODDONLYGW"> F  </i>
   <i type="logical" name="EVENONLYGW"> F  </i>
   <i type="int" name="NKREDLFX">     1</i>
   <i type="int" name="NKREDLFY">     1</i>
   <i type="int" name="NKREDLFZ">     1</i>
   <i type="int" name="MAXMEM">  1800</i>
   <i type="int" name="TELESCOPE">     0</i>
   <i type="int" name="TAUPAR">     1</i>
   <i type="int" name="OMEGAPAR">    -1</i>
   <i name="LAMBDA">      1.00000000</i>
  </separator>
  <separator name="External order field" >
   <i name="OFIELD_KAPPA">      0.00000000</i>
   <v name="OFIELD_K">      0.00000000      0.00000000      0.00000000</v>
   <i name="OFIELD_Q6_NEAR">      0.00000000</i>
   <i name="OFIELD_Q6_FAR">      0.00000000</i>
   <i name="OFIELD_A">      0.00000000</i>
  </separator>
 </parameters>
 <atominfo>
  <atoms>      64 </atoms>
  <types>       1 </types>
  <array name="atoms" >
   <dimension dim="1">ion</dimension>
   <field type="string">element</field>
   <field type="int">atomtype</field>
   <set>
    <rc><c>Si</c><c>   1</c></rc>
    <rc><c>Si</c><c>   1</c></rc>
    <rc><c>Si</c><c>   1</c></rc>
    <rc><c>Si</c><c>   1</c></rc>
    <rc><c>Si</c><c>   1</c></rc>
    <rc><c>Si</c><c>   1</c></rc>
    <rc><c>Si</c><c>   1</c></rc>
    <rc><c>Si</c><c>   1</c></rc>
    <rc><c>Si</c><c>   1</c></rc>
    <rc><c>Si</c><c>   1</c></rc>
    <rc><c>Si</c><c>   1</c></rc>
    <rc><c>Si</c><c>   1</c></rc>
    <rc><c>Si</c><c>   1</c></rc>
    <rc><c>Si</c><c>   1</c></rc>
    <rc><c>Si</c><c>   1</c></rc>
    <rc><c>Si</c><c>   1</c></rc>
    <rc><c>Si</c><c>   1</c></rc>
    <rc><c>Si</c><c>   1</c></rc>
    <rc><c>Si</c><c>   1</c></rc>
    <rc><c>Si</c><c>   1</c></rc>
    <rc><c>Si</c><c>   1</c></rc>
    <rc><c>Si</c><c>   1</c></rc>
    <rc><c>Si</c><c>   1</c></rc>
    <rc><c>Si</c><c>   1</c></rc>
    <rc><c>Si</c><c>   1</c></rc>
    <rc><c>Si</c><c>   1</c></rc>
    <rc><c>Si</c><c>   1</c></rc>
    <rc><c>Si</c><c>   1</c></rc>
    <rc><c>Si</c><c>   1</c></rc>
    <rc><c>Si</c><c>   1</c></rc>
    <rc><c>Si</c><c>   1</c></rc>
    <rc><c>Si</c><c>   1</c></rc>
    <rc><c>Si</c><c>   1</c></rc>
    <rc><c>Si</c><c>   1</c></rc>
    <rc><c>Si</c><c>   1</c></rc>
    <rc><c>Si</c><c>   1</c></rc>
    <rc><c>Si</c><c>   1</c></rc>
    <rc><c>Si</c><c>   1</c></rc>
    <rc><c>Si</c><c>   1</c></rc>
    <rc><c>Si</c><c>   1</c></rc>
    <rc><c>Si</c><c>   1</c></rc>
    <rc><c>Si</c><c>   1</c></rc>
    <rc><c>Si</c><c>   1</c></rc>
    <rc><c>Si</c><c>   1</c></rc>
    <rc><c>Si</c><c>   1</c></rc>
    <rc><c>Si</c><c>   1</c></rc>
    <rc><c>Si</c><c>   1</c></rc>
    <rc><c>Si</c><c>   1</c></rc>
    <rc><c>Si</c><c>   1</c></rc>
    <rc><c>Si</c><c>   1</c></rc>
    <rc><c>Si</c><c>   1</c></rc>
    <rc><c>Si</c><c>   1</c></rc>
    <rc><c>Si</c><c>   1</c></rc>
    <rc><c>Si</c><c>   1</c></rc>
    <rc><c>Si</c><c>   1</c></rc>
    <rc><c>Si</c><c>   1</c></rc>
    <rc><c>Si</c><c>   1</c></rc>
    <rc><c>Si</c><c>   1</c></rc>
    <rc><c>Si</c><c>   1</c></rc>
    <rc><c>Si</c><c>   1</c></rc>
    <rc><c>Si</c><c>   1</c></rc>
    <rc><c>Si</c><c>   1</c></rc>
    <rc><c>Si</c><c>   1</c></rc>
    <rc><c>Si</c><c>   1</c></rc>
   </set>
  </array>
  <array name="atomtypes" >
   <dimension dim="1">type</dimension>
   <field type="int">atomspertype</field>
   <field type="string">element</field>
   <field>mass</field>
   <field>valence</field>
   <field type="string">pseudopotential</field>
   <set>
    <rc><c>  64</c><c>Si</c><c>     28.08500000</c><c>      4.00000000</c><c>  PAW_PBE Si 05Jan2001                  </c></rc>
   </set>
  </array>
 </atominfo>
 <structure name="initialpos" >
  <crystal>
   <varray name="basis" >
    <v>      10.93252578       0.00000000       0.00000000 </v>
    <v>       0.00000000      10.93252578       0.00000000 </v>
    <v>       0.00000000       0.00000000      10.93252578 </v>
   </varray>
   <i name="volume">   1306.65679237 </i>
   <varray name="rec_basis" >
    <v>       0.09147017       0.00000000       0.00000000 </v>
    <v>       0.00000000       0.09147017       0.00000000 </v>
    <v>       0.00000000       0.00000000       0.09147017 </v>
   </varray>
  </crystal>
  <varray name="positions" >
   <v>       0.44024411       0.43750000       0.43750000 </v>
   <v>       0.93750000       0.43750000       0.43750000 </v>
   <v>       0.43750000       0.93750000       0.43750000 </v>
   <v>       0.93750000       0.93750000       0.43750000 </v>
   <v>       0.43750000       0.43750000       0.93750000 </v>
   <v>       0.93750000       0.43750000       0.93750000 </v>
   <v>       0.43750000       0.93750000       0.93750000 </v>
   <v>       0.93750000       0.93750000       0.93750000 </v>
   <v>       0.43750000       0.18750000       0.18750000 </v>
   <v>       0.93750000       0.18750000       0.18750000 </v>
   <v>       0.43750000       0.68750000       0.18750000 </v>
   <v>       0.93750000       0.68750000       0.18750000 </v>
   <v>       0.43750000       0.18750000       0.68750000 </v>
   <v>       0.93750000       0.18750000       0.68750000 </v>
   <v>       0.43750000       0.68750000       0.68750000 </v>
   <v>       0.93750000       0.68750000       0.68750000 </v>
   <v>       0.18750000       0.43750000       0.18750000 </v>
   <v>       0.68750000       0.43750000       0.19024411 </v>
   <v>       0.18750000       0.93750000       0.18750000 </v>
   <v>       0.68750000       0.93750000       0.18750000 </v>
   <v>       0.18750000       0.43750000       0.68750000 </v>
   <v>       0.68750000       0.43750000       0.68750000 </v>
   <v>       0.18750000       0.93750000       0.68750000 </v>
   <v>       0.68750000       0.93750000       0.68750000 </v>
   <v>       0.18750000       0.18750000       0.43750000 </v>
   <v>       0.68750000       0.18750000       0.43750000 </v>
   <v>       0.18750000       0.68750000       0.43750000 </v>
   <v>       0.68750000       0.68750000       0.43750000 </v>
   <v>       0.18750000       0.18750000       0.93750000 </v>
   <v>       0.68750000       0.18750000       0.93750000 </v>
   <v>       0.18750000       0.68750000       0.93750000 </v>
   <v>       0.68750000       0.68750000       0.93750000 </v>
   <v>       0.06250000       0.06250000       0.06250000 </v>
   <v>       0.56250000       0.06250000       0.06250000 </v>
   <v>       0.06250000       0.56250000       0.06250000 </v>
   <v>       0.56250000       0.56250000       0.06250000 </v>
   <v>       0.06250000       0.06250000       0.56250000 </v>
   <v>       0.56250000       0.06250000       0.56250000 </v>
   <v>       0.06250000       0.56250000       0.56250000 </v>
   <v>       0.56250000       0.56250000       0.56250000 </v>
   <v>       0.06250000       0.31250000       0.31250000 </v>
   <v>       0.56250000       0.31250000       0.31250000 </v>
   <v>       0.06250000       0.81250000       0.31250000 </v>
   <v>       0.56250000       0.81250000       0.31250000 </v>
   <v>       0.06250000       0.31250000       0.81250000 </v>
   <v>       0.56250000       0.31250000       0.81250000 </v>
   <v>       0.06250000       0.81250000       0.81250000 </v>
   <v>       0.56250000       0.81250000       0.81250000 </v>
   <v>       0.31250000       0.06250000       0.31250000 </v>
   <v>       0.81250000       0.06250000       0.31250000 </v>
   <v>       0.31250000       0.56250000       0.31250000 </v>
   <v>       0.81250000       0.56250000       0.31250000 </v>
   <v>       0.31250000       0.06250000       0.81250000 </v>
   <v>       0.81250000       0.06250000       0.81250000 </v>
   <v>       0.31250000       0.56250000       0.81250000 </v>
   <v>       0.81250000       0.56250000       0.81250000 </v>
   <v>       0.31250000       0.31250000       0.06250000 </v>
   <v>       0.81250000       0.31250000       0.06250000 </v>
   <v>       0.31250000       0.81250000       0.06250000 </v>
   <v>       0.81250000       0.81250000       0.06250000 </v>
   <v>       0.31250000       0.31250000       0.56250000 </v>
   <v>       0.81250000       0.31250000       0.56250000 </v>
   <v>       0.31250000       0.81250000       0.56250000 </v>
   <v>       0.81250000       0.81250000       0.56250000 </v>
  </varray>
 </structure>
 <calculation>
  <scstep>
   <time name="dav">    3.42    3.42</time>
   <time name="total">    3.62    3.62</time>
   <energy>
    <i name="alphaZ">    105.52440745 </i>
    <i name="ewald">  -7265.46614226 </i>
    <i name="hartreedc">   -361.71710090 </i>
    <i name="XCdc">   -597.75709541 </i>
    <i name="pawpsdc">   5639.92317535 </i>
    <i name="pawaedc">  -4513.95313856 </i>
    <i name="eentropy">     -0.00031716 </i>
    <i name="bandstr">    857.47552316 </i>
    <i name="atom">   6596.14994790 </i>
    <i name="e_fr_energy">    460.17925957 </i>
    <i name="e_wo_entrp">    460.17957673 </i>
    <i name="e_0_energy">    460.17941815 </i>
   </energy>
  </scstep>
  <scstep>
   <time name="dav">    3.86    3.87</time>
   <time name="total">    3.87    3.88</time>
   <energy>
    <i name="e_fr_energy">   -299.20930010 </i>
    <i name="e_wo_entrp">   -299.20930010 </i>
    <i name="e_0_energy">   -299.20930010 </i>
   </energy>
  </scstep>
  <scstep>
   <time name="dav">    3.94    3.95</time>
   <time name="total">    3.95    3.96</time>
   <energy>
    <i name="e_fr_energy">   -350.99348404 </i>
    <i name="e_wo_entrp">   -350.99348404 </i>
    <i name="e_0_energy">   -350.99348404 </i>
   </energy>
  </scstep>
  <scstep>
   <time name="dav">    3.91    3.92</time>
   <time name="total">    3.91    3.93</time>
   <energy>
    <i name="e_fr_energy">   -352.27110114 </i>
    <i name="e_wo_entrp">   -352.27110114 </i>
    <i name="e_0_energy">   -352.27110114 </i>
   </energy>
  </scstep>
  <scstep>
   <time name="dav">    3.92    3.93</time>
   <time name="total">    4.17    4.18</time>
   <energy>
    <i name="e_fr_energy">   -352.31352836 </i>
    <i name="e_wo_entrp">   -352.31352836 </i>
    <i name="e_0_energy">   -352.31352836 </i>
   </energy>
  </scstep>
  <scstep>
   <time name="dav">    3.77    3.78</time>
   <time name="total">    4.21    4.23</time>
   <energy>
    <i name="e_fr_energy">   -348.58452090 </i>
    <i name="e_wo_entrp">   -348.58452090 </i>
    <i name="e_0_energy">   -348.58452090 </i>
   </energy>
  </scstep>
  <scstep>
   <time name="dav">    3.69    3.70</time>
   <time name="total">    4.13    4.14</time>
   <energy>
    <i name="e_fr_energy">   -346.87169577 </i>
    <i name="e_wo_entrp">   -346.87169577 </i>
    <i name="e_0_energy">   -346.87169577 </i>
   </energy>
  </scstep>
  <scstep>
   <time name="dav">    3.88    3.88</time>
   <time name="total">    4.32    4.34</time>
   <energy>
    <i name="e_fr_energy">   -346.89799058 </i>
    <i name="e_wo_entrp">   -346.89799058 </i>
    <i name="e_0_energy">   -346.89799058 </i>
   </energy>
  </scstep>
  <scstep>
   <time name="dav">    3.93    3.94</time>
   <time name="total">    4.37    4.39</time>
   <energy>
    <i name="e_fr_energy">   -346.90468772 </i>
    <i name="e_wo_entrp">   -346.90468772 </i>
    <i name="e_0_energy">   -346.90468772 </i>
   </energy>
  </scstep>
  <scstep>
   <time name="dav">    3.65    3.66</time>
   <time name="total">    4.09    4.10</time>
   <energy>
    <i name="e_fr_energy">   -346.90675214 </i>
    <i name="e_wo_entrp">   -346.90675214 </i>
    <i name="e_0_energy">   -346.90675214 </i>
   </energy>
  </scstep>
  <scstep>
   <time name="dav">    3.90    3.90</time>
   <time name="total">    4.34    4.36</time>
   <energy>
    <i name="e_fr_energy">   -346.90672451 </i>
    <i name="e_wo_entrp">   -346.90672451 </i>
    <i name="e_0_energy">   -346.90672451 </i>
   </energy>
  </scstep>
  <scstep>
   <time name="dav">    3.83    3.84</time>
   <time name="total">    4.28    4.28</time>
   <energy>
    <i name="e_fr_energy">   -346.90674009 </i>
    <i name="e_wo_entrp">   -346.90674009 </i>
    <i name="e_0_energy">   -346.90674009 </i>
   </energy>
  </scstep>
  <scstep>
   <time name="dav">    3.82    3.83</time>
   <time name="total">    4.26    4.27</time>
   <energy>
    <i name="e_fr_energy">   -346.90674049 </i>
    <i name="e_wo_entrp">   -346.90674049 </i>
    <i name="e_0_energy">   -346.90674049 </i>
   </energy>
  </scstep>
  <scstep>
   <time name="dav">    3.93    3.93</time>
   <time name="total">    4.37    4.38</time>
   <energy>
    <i name="e_fr_energy">   -346.90674111 </i>
    <i name="e_wo_entrp">   -346.90674111 </i>
    <i name="e_0_energy">   -346.90674111 </i>
   </energy>
  </scstep>
  <scstep>
   <time name="dav">    3.40    3.40</time>
   <time name="total">    3.85    3.86</time>
   <energy>
    <i name="e_fr_energy">   -346.90674084 </i>
    <i name="e_wo_entrp">   -346.90674084 </i>
    <i name="e_0_energy">   -346.90674084 </i>
   </energy>
  </scstep>
  <scstep>
   <time name="dav">    2.65    2.66</time>
   <time name="total">    3.10    3.10</time>
   <energy>
    <i name="e_fr_energy">   -346.90674093 </i>
    <i name="e_wo_entrp">   -346.90674093 </i>
    <i name="e_0_energy">   -346.90674093 </i>
   </energy>
  </scstep>
  <scstep>
   <time name="dav">    2.62    2.62</time>
   <time name="total">    3.06    3.10</time>
   <energy>
    <i name="e_fr_energy">   -346.90674092 </i>
    <i name="e_wo_entrp">   -346.90674092 </i>
    <i name="e_0_energy">   -346.90674092 </i>
   </energy>
  </scstep>
  <scstep>
   <time name="dav">    2.57    2.58</time>
   <time name="total">    3.01    3.02</time>
   <energy>
    <i name="e_fr_energy">   -346.90674093 </i>
    <i name="e_wo_entrp">   -346.90674093 </i>
    <i name="e_0_energy">   -346.90674093 </i>
   </energy>
  </scstep>
  <scstep>
   <time name="dav">    2.55    2.55</time>
   <time name="total">    2.75    2.76</time>
   <energy>
    <i name="alphaZ">    105.52440745 </i>
    <i name="ewald">  -7265.46614226 </i>
    <i name="hartreedc">   -485.14810344 </i>
    <i name="XCdc">   -577.61226036 </i>
    <i name="pawpsdc">  27883.46598413 </i>
    <i name="pawaedc"> -26764.18391371 </i>
    <i name="eentropy">      0.00000000 </i>
    <i name="bandstr">    160.36333936 </i>
    <i name="atom">   6596.14994790 </i>
    <i name="e_fr_energy">   -346.90674094 </i>
    <i name="e_wo_entrp">   -346.90674094 </i>
    <i name="e_0_energy">   -346.90674094 </i>
   </energy>
  </scstep>
  <structure>
   <crystal>
    <varray name="basis" >
     <v>      10.93252578       0.00000000       0.00000000 </v>
     <v>       0.00000000      10.93252578       0.00000000 </v>
     <v>       0.00000000       0.00000000      10.93252578 </v>
    </varray>
    <i name="volume">   1306.65679237 </i>
    <varray name="rec_basis" >
     <v>       0.09147017       0.00000000       0.00000000 </v>
     <v>       0.00000000       0.09147017       0.00000000 </v>
     <v>       0.00000000       0.00000000       0.09147017 </v>
    </varray>
   </crystal>
   <varray name="positions" >
    <v>       0.44024411       0.43750000       0.43750000 </v>
    <v>       0.93750000       0.43750000       0.43750000 </v>
    <v>       0.43750000       0.93750000       0.43750000 </v>
    <v>       0.93750000       0.93750000       0.43750000 </v>
    <v>       0.43750000       0.43750000       0.93750000 </v>
    <v>       0.93750000       0.43750000       0.93750000 </v>
    <v>       0.43750000       0.93750000       0.93750000 </v>
    <v>       0.93750000       0.93750000       0.93750000 </v>
    <v>       0.43750000       0.18750000       0.18750000 </v>
    <v>       0.93750000       0.18750000       0.18750000 </v>
    <v>       0.43750000       0.68750000       0.18750000 </v>
    <v>       0.93750000       0.68750000       0.18750000 </v>
    <v>       0.43750000       0.18750000       0.68750000 </v>
    <v>       0.93750000       0.18750000       0.68750000 </v>
    <v>       0.43750000       0.68750000       0.68750000 </v>
    <v>       0.93750000       0.68750000       0.68750000 </v>
    <v>       0.18750000       0.43750000       0.18750000 </v>
    <v>       0.68750000       0.43750000       0.19024411 </v>
    <v>       0.18750000       0.93750000       0.18750000 </v>
    <v>       0.68750000       0.93750000       0.18750000 </v>
    <v>       0.18750000       0.43750000       0.68750000 </v>
    <v>       0.68750000       0.43750000       0.68750000 </v>
    <v>       0.18750000       0.93750000       0.68750000 </v>
    <v>       0.68750000       0.93750000       0.68750000 </v>
    <v>       0.18750000       0.18750000       0.43750000 </v>
    <v>       0.68750000       0.18750000       0.43750000 </v>
    <v>       0.18750000       0.68750000       0.43750000 </v>
    <v>       0.68750000       0.68750000       0.43750000 </v>
    <v>       0.18750000       0.18750000       0.93750000 </v>
    <v>       0.68750000       0.18750000       0.93750000 </v>
    <v>       0.18750000       0.68750000       0.93750000 </v>
    <v>       0.68750000       0.68750000       0.93750000 </v>
    <v>       0.06250000       0.06250000       0.06250000 </v>
    <v>       0.56250000       0.06250000       0.06250000 </v>
    <v>       0.06250000       0.56250000       0.06250000 </v>
    <v>       0.56250000       0.56250000       0.06250000 </v>
    <v>       0.06250000       0.06250000       0.56250000 </v>
    <v>       0.56250000       0.06250000       0.56250000 </v>
    <v>       0.06250000       0.56250000       0.56250000 </v>
    <v>       0.56250000       0.56250000       0.56250000 </v>
    <v>       0.06250000       0.31250000       0.31250000 </v>
    <v>       0.56250000       0.31250000       0.31250000 </v>
    <v>       0.06250000       0.81250000       0.31250000 </v>
    <v>       0.56250000       0.81250000       0.31250000 </v>
    <v>       0.06250000       0.31250000       0.81250000 </v>
    <v>       0.56250000       0.31250000       0.81250000 </v>
    <v>       0.06250000       0.81250000       0.81250000 </v>
    <v>       0.56250000       0.81250000       0.81250000 </v>
    <v>       0.31250000       0.06250000       0.31250000 </v>
    <v>       0.81250000       0.06250000       0.31250000 </v>
    <v>       0.31250000       0.56250000       0.31250000 </v>
    <v>       0.81250000       0.56250000       0.31250000 </v>
    <v>       0.31250000       0.06250000       0.81250000 </v>
    <v>       0.81250000       0.06250000       0.81250000 </v>
    <v>       0.31250000       0.56250000       0.81250000 </v>
    <v>       0.81250000       0.56250000       0.81250000 </v>
    <v>       0.31250000       0.31250000       0.06250000 </v>
    <v>       0.81250000       0.31250000       0.06250000 </v>
    <v>       0.31250000       0.81250000       0.06250000 </v>
    <v>       0.81250000       0.81250000       0.06250000 </v>
    <v>       0.31250000       0.31250000       0.56250000 </v>
    <v>       0.81250000       0.31250000       0.56250000 </v>
    <v>       0.31250000       0.81250000       0.56250000 </v>
    <v>       0.81250000       0.81250000       0.56250000 </v>
   </varray>
  </structure>
  <varray name="forces" >
   <v>      -0.39295298      -0.00282555       0.00598376 </v>
   <v>       0.00624266       0.00277142       0.00579694 </v>
   <v>       0.00316564      -0.00023013       0.00101746 </v>
   <v>      -0.00202534       0.00022551       0.00103472 </v>
   <v>       0.00687829      -0.00267388       0.00564704 </v>
   <v>      -0.00573699       0.00265307       0.00564478 </v>
   <v>      -0.01340702      -0.00023514       0.00101410 </v>
   <v>       0.00243901       0.00022995       0.00101504 </v>
   <v>      -0.01013125       0.00546262      -0.01013125 </v>
   <v>       0.00264831      -0.00243175      -0.01255680 </v>
   <v>      -0.01543679       0.00531712      -0.01543679 </v>
   <v>      -0.00276970      -0.00253302      -0.01311644 </v>
   <v>      -0.01255680      -0.00243175       0.00264831 </v>
   <v>       0.00023231      -0.00047145       0.00023231 </v>
   <v>      -0.01311644      -0.00253302      -0.00276970 </v>
   <v>      -0.00025206      -0.00045195      -0.00025206 </v>
   <v>       0.00564704      -0.00267388       0.00687829 </v>
   <v>       0.00598376      -0.00282555      -0.39295298 </v>
   <v>       0.00101410      -0.00023514      -0.01340702 </v>
   <v>       0.00101746      -0.00023013       0.00316564 </v>
   <v>       0.00564478       0.00265307      -0.00573699 </v>
   <v>       0.00579694       0.00277142       0.00624266 </v>
   <v>       0.00101504       0.00022995       0.00243901 </v>
   <v>       0.00103472       0.00022551      -0.00202534 </v>
   <v>       0.00541688       0.00740310      -0.00164066 </v>
   <v>       0.00308525      -0.01138580       0.00308525 </v>
   <v>       0.00587582      -0.00741233       0.00369700 </v>
   <v>       0.00857416       0.01136900       0.00857416 </v>
   <v>       0.00078577      -0.00372357       0.00078577 </v>
   <v>      -0.00164066       0.00740310       0.00541688 </v>
   <v>       0.00124902       0.00372179       0.00124902 </v>
   <v>       0.00369700      -0.00741233       0.00587582 </v>
   <v>       0.00013658       0.00008035       0.00689707 </v>
   <v>       0.00744901      -0.00020117      -0.00075013 </v>
   <v>       0.00150711      -0.00059163      -0.00083095 </v>
   <v>       0.05945601      -0.05973171       0.09400085 </v>
   <v>       0.00136545      -0.00014389       0.00011159 </v>
   <v>      -0.00078349       0.00028996       0.00186913 </v>
   <v>       0.00036396       0.00020179       0.00157636 </v>
   <v>       0.09671272       0.06519922       0.06582547 </v>
   <v>      -0.00120089      -0.00212345      -0.00238369 </v>
   <v>       0.02966573      -0.13207702       0.02966573 </v>
   <v>      -0.00006965      -0.00128626       0.00554832 </v>
   <v>      -0.00268688      -0.00184908      -0.00268688 </v>
   <v>       0.00001580      -0.00128981       0.00001580 </v>
   <v>      -0.00238369      -0.00212345      -0.00120089 </v>
   <v>      -0.00128980      -0.00150901      -0.00128980 </v>
   <v>       0.00554832      -0.00128626      -0.00006965 </v>
   <v>      -0.00075013      -0.00020117       0.00744901 </v>
   <v>       0.00186913       0.00028996      -0.00078349 </v>
   <v>       0.09400085      -0.05973171       0.05945601 </v>
   <v>       0.06582547       0.06519922       0.09671272 </v>
   <v>       0.00689707       0.00008035       0.00013658 </v>
   <v>       0.00011159      -0.00014389       0.00136545 </v>
   <v>      -0.00083095      -0.00059163       0.00150711 </v>
   <v>       0.00157636       0.00020179       0.00036396 </v>
   <v>      -0.00231824       0.00248803      -0.00231824 </v>
   <v>      -0.06029591       0.06170330       0.09241668 </v>
   <v>       0.00545428       0.00136142       0.00545428 </v>
   <v>      -0.00177851       0.00163509      -0.00217674 </v>
   <v>       0.09241668       0.06170330      -0.06029591 </v>
   <v>      -0.00117808       0.00181323      -0.00117808 </v>
   <v>      -0.00217674       0.00163509      -0.00177851 </v>
   <v>      -0.00004710       0.00127878      -0.00004710 </v>
  </varray>
  <varray name="stress" >
   <v>       0.00216539       0.33496737      -0.00026209 </v>
   <v>       0.33496736       0.02076899       0.33496736 </v>
   <v>      -0.00026209       0.33496737       0.00216539 </v>
  </varray>
  <energy>
   <i name="e_fr_energy">   -346.90674094 </i>
   <i name="e_wo_entrp">   -346.90674094 </i>
   <i name="e_0_energy">      0.00000000 </i>
  </energy>
  <time name="totalsc">   82.21   82.54</time>
  <eigenvalues>
   <array>
    <dimension dim="1">band</dimension>
    <dimension dim="2">kpoint</dimension>
    <dimension dim="3">spin</dimension>
    <field>eigene</field>
    <field>occ</field>
    <set>
     <set comment="spin 1">
      <set comment="kpoint 1">
       <r>   -5.9931    1.0000 </r>
       <r>   -5.4702    1.0000 </r>
       <r>   -5.4627    1.0000 </r>
       <r>   -5.4618    1.0000 </r>
       <r>   -4.9707    1.0000 </r>
       <r>   -4.9634    1.0000 </r>
       <r>   -4.9625    1.0000 </r>
       <r>   -4.5312    1.0000 </r>
       <r>   -4.4374    1.0000 </r>
       <r>   -4.4301    1.0000 </r>
       <r>   -4.4290    1.0000 </r>
       <r>   -4.0275    1.0000 </r>
       <r>   -4.0178    1.0000 </r>
       <r>   -4.0152    1.0000 </r>
       <r>   -4.0145    1.0000 </r>
       <r>   -4.0135    1.0000 </r>
       <r>   -4.0128    1.0000 </r>
       <r>   -3.8287    1.0000 </r>
       <r>   -3.8245    1.0000 </r>
       <r>   -3.8217    1.0000 </r>
       <r>   -3.3316    1.0000 </r>
       <r>   -3.3250    1.0000 </r>
       <r>   -3.3232    1.0000 </r>
       <r>   -2.9632    1.0000 </r>
       <r>   -2.9591    1.0000 </r>
       <r>   -2.9561    1.0000 </r>
       <r>   -2.8003    1.0000 </r>
       <r>   -2.7918    1.0000 </r>
       <r>   -2.7906    1.0000 </r>
       <r>   -2.7893    1.0000 </r>
       <r>   -2.7881    1.0000 </r>
       <r>   -2.7866    1.0000 </r>
       <r>   -1.2554    1.0000 </r>
       <r>   -1.2515    1.0000 </r>
       <r>   -1.2485    1.0000 </r>
       <r>   -1.2469    1.0000 </r>
       <r>   -1.2446    1.0000 </r>
       <r>   -1.2433    1.0000 </r>
       <r>   -1.1535    1.0000 </r>
       <r>   -1.1505    1.0000 </r>
       <r>   -1.1470    1.0000 </r>
       <r>   -1.0336    1.0000 </r>
       <r>   -1.0327    1.0000 </r>
       <r>   -1.0269    1.0000 </r>
       <r>   -0.9564    1.0000 </r>
       <r>   -0.9503    1.0000 </r>
       <r>   -0.9455    1.0000 </r>
       <r>   -0.2481    1.0000 </r>
       <r>   -0.1649    1.0000 </r>
       <r>   -0.1640    1.0000 </r>
       <r>   -0.1582    1.0000 </r>
       <r>   -0.1580    1.0000 </r>
       <r>   -0.1537    1.0000 </r>
       <r>   -0.1535    1.0000 </r>
       <r>    0.7079    1.0000 </r>
       <r>    0.7116    1.0000 </r>
       <r>    0.7165    1.0000 </r>
       <r>    1.0447    1.0000 </r>
       <r>    1.0468    1.0000 </r>
       <r>    1.0498    1.0000 </r>
       <r>    1.6513    1.0000 </r>
       <r>    1.6565    1.0000 </r>
       <r>    1.6567    1.0000 </r>
       <r>    1.6586    1.0000 </r>
       <r>    1.6586    1.0000 </r>
       <r>    1.6601    1.0000 </r>
       <r>    1.7159    1.0000 </r>
       <r>    1.7169    1.0000 </r>
       <r>    1.7192    1.0000 </r>
       <r>    2.2644    1.0000 </r>
       <r>    2.2654    1.0000 </r>
       <r>    2.2678    1.0000 </r>
       <r>    2.3673    1.0000 </r>
       <r>    2.3693    1.0000 </r>
       <r>    2.3706    1.0000 </r>
       <r>    2.3733    1.0000 </r>
       <r>    2.3741    1.0000 </r>
       <r>    2.3772    1.0000 </r>
       <r>    2.4247    1.0000 </r>
       <r>    2.4276    1.0000 </r>
       <r>    2.4299    1.0000 </r>
       <r>    2.7286    1.0000 </r>
       <r>    2.7307    1.0000 </r>
       <r>    2.7349    1.0000 </r>
       <r>    2.7368    1.0000 </r>
       <r>    2.7374    1.0000 </r>
       <r>    2.7402    1.0000 </r>
       <r>    2.9984    1.0000 </r>
       <r>    2.9997    1.0000 </r>
       <r>    3.0031    1.0000 </r>
       <r>    3.0116    1.0000 </r>
       <r>    3.0151    1.0000 </r>
       <r>    3.0172    1.0000 </r>
       <r>    3.3553    1.0000 </r>
       <r>    3.3619    1.0000 </r>
       <r>    3.3632    1.0000 </r>
       <r>    3.3792    1.0000 </r>
       <r>    3.3803    1.0000 </r>
       <r>    3.3846    1.0000 </r>
       <r>    3.4651    1.0000 </r>
       <r>    3.4678    1.0000 </r>
       <r>    3.4702    1.0000 </r>
       <r>    3.7315    1.0000 </r>
       <r>    3.7335    1.0000 </r>
       <r>    3.7394    1.0000 </r>
       <r>    3.7417    1.0000 </r>
       <r>    3.7422    1.0000 </r>
       <r>    3.7439    1.0000 </r>
       <r>    3.7789    1.0000 </r>
       <r>    3.7822    1.0000 </r>
       <r>    3.7847    1.0000 </r>
       <r>    4.0367    1.0000 </r>
       <r>    4.0978    1.0000 </r>
       <r>    4.0989    1.0000 </r>
       <r>    4.1038    1.0000 </r>
       <r>    4.3400    1.0000 </r>
       <r>    4.3429    1.0000 </r>
       <r>    4.3460    1.0000 </r>
       <r>    4.3976    1.0000 </r>
       <r>    4.4011    1.0000 </r>
       <r>    4.4053    1.0000 </r>
       <r>    4.5617    1.0000 </r>
       <r>    4.5663    1.0000 </r>
       <r>    4.8689    1.0000 </r>
       <r>    4.8731    1.0000 </r>
       <r>    4.8762    1.0000 </r>
       <r>    5.3493    1.0000 </r>
       <r>    5.3547    1.0000 </r>
       <r>    6.5617    0.0000 </r>
       <r>    6.5654    0.0000 </r>
       <r>    6.5678    0.0000 </r>
       <r>    7.0014    0.0000 </r>
       <r>    7.0069    0.0000 </r>
       <r>    7.0071    0.0000 </r>
       <r>    7.2351    0.0000 </r>
       <r>    7.4892    0.0000 </r>
       <r>    7.4931    0.0000 </r>
       <r>    7.4945    0.0000 </r>
       <r>    7.6153    0.0000 </r>
       <r>    7.6177    0.0000 </r>
       <r>    7.6216    0.0000 </r>
       <r>    7.7781    0.0000 </r>
       <r>    7.7796    0.0000 </r>
       <r>    7.7829    0.0000 </r>
       <r>    7.7989    0.0000 </r>
       <r>    7.8008    0.0000 </r>
       <r>    7.8063    0.0000 </r>
       <r>    8.0230    0.0000 </r>
       <r>    8.0234    0.0000 </r>
       <r>    8.0284    0.0000 </r>
       <r>    8.0307    0.0000 </r>
       <r>    8.0329    0.0000 </r>
       <r>    8.0342    0.0000 </r>
       <r>    8.0838    0.0000 </r>
       <r>    8.2930    0.0000 </r>
       <r>    8.2957    0.0000 </r>
       <r>    8.2969    0.0000 </r>
       <r>    8.4926    0.0000 </r>
       <r>    8.4987    0.0000 </r>
       <r>    8.5017    0.0000 </r>
       <r>    8.5055    0.0000 </r>
       <r>    8.5093    0.0000 </r>
       <r>    8.5212    0.0000 </r>
       <r>    8.5473    0.0000 </r>
      </set>
      <set comment="kpoint 2">
       <r>   -5.9932    1.0000 </r>
       <r>   -5.4691    1.0000 </r>
       <r>   -5.4640    1.0000 </r>
       <r>   -5.4613    1.0000 </r>
       <r>   -4.9697    1.0000 </r>
       <r>   -4.9648    1.0000 </r>
       <r>   -4.9621    1.0000 </r>
       <r>   -4.5323    1.0000 </r>
       <r>   -4.4369    1.0000 </r>
       <r>   -4.4315    1.0000 </r>
       <r>   -4.4290    1.0000 </r>
       <r>   -4.0264    1.0000 </r>
       <r>   -4.0182    1.0000 </r>
       <r>   -4.0170    1.0000 </r>
       <r>   -4.0148    1.0000 </r>
       <r>   -4.0141    1.0000 </r>
       <r>   -4.0082    1.0000 </r>
       <r>   -3.8285    1.0000 </r>
       <r>   -3.8244    1.0000 </r>
       <r>   -3.8201    1.0000 </r>
       <r>   -3.3331    1.0000 </r>
       <r>   -3.3269    1.0000 </r>
       <r>   -3.3251    1.0000 </r>
       <r>   -2.9641    1.0000 </r>
       <r>   -2.9591    1.0000 </r>
       <r>   -2.9543    1.0000 </r>
       <r>   -2.7994    1.0000 </r>
       <r>   -2.7930    1.0000 </r>
       <r>   -2.7917    1.0000 </r>
       <r>   -2.7893    1.0000 </r>
       <r>   -2.7887    1.0000 </r>
       <r>   -2.7827    1.0000 </r>
       <r>   -1.2576    1.0000 </r>
       <r>   -1.2518    1.0000 </r>
       <r>   -1.2493    1.0000 </r>
       <r>   -1.2480    1.0000 </r>
       <r>   -1.2459    1.0000 </r>
       <r>   -1.2407    1.0000 </r>
       <r>   -1.1560    1.0000 </r>
       <r>   -1.1511    1.0000 </r>
       <r>   -1.1458    1.0000 </r>
       <r>   -1.0379    1.0000 </r>
       <r>   -1.0328    1.0000 </r>
       <r>   -1.0273    1.0000 </r>
       <r>   -0.9517    1.0000 </r>
       <r>   -0.9470    1.0000 </r>
       <r>   -0.9414    1.0000 </r>
       <r>   -0.2446    1.0000 </r>
       <r>   -0.1691    1.0000 </r>
       <r>   -0.1637    1.0000 </r>
       <r>   -0.1607    1.0000 </r>
       <r>   -0.1599    1.0000 </r>
       <r>   -0.1564    1.0000 </r>
       <r>   -0.1509    1.0000 </r>
       <r>    0.7092    1.0000 </r>
       <r>    0.7146    1.0000 </r>
       <r>    0.7190    1.0000 </r>
       <r>    1.0429    1.0000 </r>
       <r>    1.0474    1.0000 </r>
       <r>    1.0510    1.0000 </r>
       <r>    1.6506    1.0000 </r>
       <r>    1.6554    1.0000 </r>
       <r>    1.6566    1.0000 </r>
       <r>    1.6585    1.0000 </r>
       <r>    1.6592    1.0000 </r>
       <r>    1.6609    1.0000 </r>
       <r>    1.7139    1.0000 </r>
       <r>    1.7161    1.0000 </r>
       <r>    1.7187    1.0000 </r>
       <r>    2.2649    1.0000 </r>
       <r>    2.2678    1.0000 </r>
       <r>    2.2705    1.0000 </r>
       <r>    2.3657    1.0000 </r>
       <r>    2.3660    1.0000 </r>
       <r>    2.3703    1.0000 </r>
       <r>    2.3720    1.0000 </r>
       <r>    2.3746    1.0000 </r>
       <r>    2.3760    1.0000 </r>
       <r>    2.4209    1.0000 </r>
       <r>    2.4260    1.0000 </r>
       <r>    2.4286    1.0000 </r>
       <r>    2.7275    1.0000 </r>
       <r>    2.7330    1.0000 </r>
       <r>    2.7352    1.0000 </r>
       <r>    2.7358    1.0000 </r>
       <r>    2.7381    1.0000 </r>
       <r>    2.7400    1.0000 </r>
       <r>    2.9972    1.0000 </r>
       <r>    2.9993    1.0000 </r>
       <r>    3.0007    1.0000 </r>
       <r>    3.0096    1.0000 </r>
       <r>    3.0140    1.0000 </r>
       <r>    3.0173    1.0000 </r>
       <r>    3.3581    1.0000 </r>
       <r>    3.3618    1.0000 </r>
       <r>    3.3653    1.0000 </r>
       <r>    3.3802    1.0000 </r>
       <r>    3.3843    1.0000 </r>
       <r>    3.3893    1.0000 </r>
       <r>    3.4635    1.0000 </r>
       <r>    3.4670    1.0000 </r>
       <r>    3.4692    1.0000 </r>
       <r>    3.7333    1.0000 </r>
       <r>    3.7384    1.0000 </r>
       <r>    3.7410    1.0000 </r>
       <r>    3.7424    1.0000 </r>
       <r>    3.7433    1.0000 </r>
       <r>    3.7491    1.0000 </r>
       <r>    3.7774    1.0000 </r>
       <r>    3.7809    1.0000 </r>
       <r>    3.7842    1.0000 </r>
       <r>    4.0406    1.0000 </r>
       <r>    4.0958    1.0000 </r>
       <r>    4.0981    1.0000 </r>
       <r>    4.1000    1.0000 </r>
       <r>    4.3376    1.0000 </r>
       <r>    4.3413    1.0000 </r>
       <r>    4.3441    1.0000 </r>
       <r>    4.4016    1.0000 </r>
       <r>    4.4057    1.0000 </r>
       <r>    4.4105    1.0000 </r>
       <r>    4.5588    1.0000 </r>
       <r>    4.5670    1.0000 </r>
       <r>    4.8659    1.0000 </r>
       <r>    4.8702    1.0000 </r>
       <r>    4.8742    1.0000 </r>
       <r>    5.3451    1.0000 </r>
       <r>    5.3544    1.0000 </r>
       <r>    6.5603    0.0000 </r>
       <r>    6.5632    0.0000 </r>
       <r>    6.5666    0.0000 </r>
       <r>    7.0008    0.0000 </r>
       <r>    7.0033    0.0000 </r>
       <r>    7.0092    0.0000 </r>
       <r>    7.2337    0.0000 </r>
       <r>    7.4874    0.0000 </r>
       <r>    7.4893    0.0000 </r>
       <r>    7.4954    0.0000 </r>
       <r>    7.6152    0.0000 </r>
       <r>    7.6197    0.0000 </r>
       <r>    7.6239    0.0000 </r>
       <r>    7.7763    0.0000 </r>
       <r>    7.7794    0.0000 </r>
       <r>    7.7834    0.0000 </r>
       <r>    7.7993    0.0000 </r>
       <r>    7.8012    0.0000 </r>
       <r>    7.8034    0.0000 </r>
       <r>    8.0226    0.0000 </r>
       <r>    8.0271    0.0000 </r>
       <r>    8.0306    0.0000 </r>
       <r>    8.0314    0.0000 </r>
       <r>    8.0341    0.0000 </r>
       <r>    8.0371    0.0000 </r>
       <r>    8.0814    0.0000 </r>
       <r>    8.2924    0.0000 </r>
       <r>    8.2944    0.0000 </r>
       <r>    8.2982    0.0000 </r>
       <r>    8.4923    0.0000 </r>
       <r>    8.5009    0.0000 </r>
       <r>    8.5020    0.0000 </r>
       <r>    8.5043    0.0000 </r>
       <r>    8.5086    0.0000 </r>
       <r>    8.5238    0.0000 </r>
       <r>    8.5393    0.0000 </r>
      </set>
      <set comment="kpoint 3">
       <r>   -5.9933    1.0000 </r>
       <r>   -5.4681    1.0000 </r>
       <r>   -5.4643    1.0000 </r>
       <r>   -5.4617    1.0000 </r>
       <r>   -4.9689    1.0000 </r>
       <r>   -4.9650    1.0000 </r>
       <r>   -4.9628    1.0000 </r>
       <r>   -4.5334    1.0000 </r>
       <r>   -4.4363    1.0000 </r>
       <r>   -4.4323    1.0000 </r>
       <r>   -4.4297    1.0000 </r>
       <r>   -4.0220    1.0000 </r>
       <r>   -4.0199    1.0000 </r>
       <r>   -4.0183    1.0000 </r>
       <r>   -4.0163    1.0000 </r>
       <r>   -4.0133    1.0000 </r>
       <r>   -4.0062    1.0000 </r>
       <r>   -3.8270    1.0000 </r>
       <r>   -3.8243    1.0000 </r>
       <r>   -3.8197    1.0000 </r>
       <r>   -3.3345    1.0000 </r>
       <r>   -3.3286    1.0000 </r>
       <r>   -3.3272    1.0000 </r>
       <r>   -2.9621    1.0000 </r>
       <r>   -2.9590    1.0000 </r>
       <r>   -2.9554    1.0000 </r>
       <r>   -2.7964    1.0000 </r>
       <r>   -2.7951    1.0000 </r>
       <r>   -2.7919    1.0000 </r>
       <r>   -2.7910    1.0000 </r>
       <r>   -2.7876    1.0000 </r>
       <r>   -2.7811    1.0000 </r>
       <r>   -1.2546    1.0000 </r>
       <r>   -1.2545    1.0000 </r>
       <r>   -1.2514    1.0000 </r>
       <r>   -1.2487    1.0000 </r>
       <r>   -1.2441    1.0000 </r>
       <r>   -1.2428    1.0000 </r>
       <r>   -1.1552    1.0000 </r>
       <r>   -1.1512    1.0000 </r>
       <r>   -1.1491    1.0000 </r>
       <r>   -1.0381    1.0000 </r>
       <r>   -1.0331    1.0000 </r>
       <r>   -1.0318    1.0000 </r>
       <r>   -0.9480    1.0000 </r>
       <r>   -0.9417    1.0000 </r>
       <r>   -0.9383    1.0000 </r>
       <r>   -0.2410    1.0000 </r>
       <r>   -0.1674    1.0000 </r>
       <r>   -0.1660    1.0000 </r>
       <r>   -0.1636    1.0000 </r>
       <r>   -0.1598    1.0000 </r>
       <r>   -0.1568    1.0000 </r>
       <r>   -0.1557    1.0000 </r>
       <r>    0.7119    1.0000 </r>
       <r>    0.7153    1.0000 </r>
       <r>    0.7225    1.0000 </r>
       <r>    1.0440    1.0000 </r>
       <r>    1.0471    1.0000 </r>
       <r>    1.0500    1.0000 </r>
       <r>    1.6515    1.0000 </r>
       <r>    1.6549    1.0000 </r>
       <r>    1.6562    1.0000 </r>
       <r>    1.6569    1.0000 </r>
       <r>    1.6593    1.0000 </r>
       <r>    1.6617    1.0000 </r>
       <r>    1.7128    1.0000 </r>
       <r>    1.7161    1.0000 </r>
       <r>    1.7167    1.0000 </r>
       <r>    2.2676    1.0000 </r>
       <r>    2.2701    1.0000 </r>
       <r>    2.2709    1.0000 </r>
       <r>    2.3634    1.0000 </r>
       <r>    2.3664    1.0000 </r>
       <r>    2.3701    1.0000 </r>
       <r>    2.3702    1.0000 </r>
       <r>    2.3732    1.0000 </r>
       <r>    2.3739    1.0000 </r>
       <r>    2.4196    1.0000 </r>
       <r>    2.4219    1.0000 </r>
       <r>    2.4276    1.0000 </r>
       <r>    2.7293    1.0000 </r>
       <r>    2.7337    1.0000 </r>
       <r>    2.7345    1.0000 </r>
       <r>    2.7358    1.0000 </r>
       <r>    2.7371    1.0000 </r>
       <r>    2.7402    1.0000 </r>
       <r>    2.9953    1.0000 </r>
       <r>    2.9985    1.0000 </r>
       <r>    3.0003    1.0000 </r>
       <r>    3.0095    1.0000 </r>
       <r>    3.0128    1.0000 </r>
       <r>    3.0147    1.0000 </r>
       <r>    3.3612    1.0000 </r>
       <r>    3.3650    1.0000 </r>
       <r>    3.3651    1.0000 </r>
       <r>    3.3842    1.0000 </r>
       <r>    3.3890    1.0000 </r>
       <r>    3.3891    1.0000 </r>
       <r>    3.4642    1.0000 </r>
       <r>    3.4643    1.0000 </r>
       <r>    3.4679    1.0000 </r>
       <r>    3.7393    1.0000 </r>
       <r>    3.7410    1.0000 </r>
       <r>    3.7417    1.0000 </r>
       <r>    3.7432    1.0000 </r>
       <r>    3.7480    1.0000 </r>
       <r>    3.7491    1.0000 </r>
       <r>    3.7780    1.0000 </r>
       <r>    3.7781    1.0000 </r>
       <r>    3.7831    1.0000 </r>
       <r>    4.0444    1.0000 </r>
       <r>    4.0920    1.0000 </r>
       <r>    4.0970    1.0000 </r>
       <r>    4.0983    1.0000 </r>
       <r>    4.3376    1.0000 </r>
       <r>    4.3380    1.0000 </r>
       <r>    4.3417    1.0000 </r>
       <r>    4.4059    1.0000 </r>
       <r>    4.4097    1.0000 </r>
       <r>    4.4157    1.0000 </r>
       <r>    4.5593    1.0000 </r>
       <r>    4.5642    1.0000 </r>
       <r>    4.8655    1.0000 </r>
       <r>    4.8659    1.0000 </r>
       <r>    4.8711    1.0000 </r>
       <r>    5.3448    1.0000 </r>
       <r>    5.3501    1.0000 </r>
       <r>    6.5585    0.0000 </r>
       <r>    6.5616    0.0000 </r>
       <r>    6.5652    0.0000 </r>
       <r>    6.9984    0.0000 </r>
       <r>    7.0046    0.0000 </r>
       <r>    7.0081    0.0000 </r>
       <r>    7.2323    0.0000 </r>
       <r>    7.4844    0.0000 </r>
       <r>    7.4898    0.0000 </r>
       <r>    7.4932    0.0000 </r>
       <r>    7.6172    0.0000 </r>
       <r>    7.6217    0.0000 </r>
       <r>    7.6239    0.0000 </r>
       <r>    7.7737    0.0000 </r>
       <r>    7.7816    0.0000 </r>
       <r>    7.7824    0.0000 </r>
       <r>    7.7970    0.0000 </r>
       <r>    7.8015    0.0000 </r>
       <r>    7.8035    0.0000 </r>
       <r>    8.0276    0.0000 </r>
       <r>    8.0277    0.0000 </r>
       <r>    8.0309    0.0000 </r>
       <r>    8.0333    0.0000 </r>
       <r>    8.0365    0.0000 </r>
       <r>    8.0372    0.0000 </r>
       <r>    8.0792    0.0000 </r>
       <r>    8.2915    0.0000 </r>
       <r>    8.2954    0.0000 </r>
       <r>    8.2975    0.0000 </r>
       <r>    8.4954    0.0000 </r>
       <r>    8.4993    0.0000 </r>
       <r>    8.5026    0.0000 </r>
       <r>    8.5061    0.0000 </r>
       <r>    8.5080    0.0000 </r>
       <r>    8.5164    0.0000 </r>
       <r>    8.5423    0.0000 </r>
      </set>
     </set>
    </set>
   </array>
  </eigenvalues>
  <separator name="orbital magnetization" >
   <v name="MAGDIPOLOUT">      0.00000000      0.00000000      0.00000000</v>
  </separator>
  <dos>
   <i name="efermi">      5.59886053 </i>
   <total>
    <array>
     <dimension dim="1">gridpoints</dimension>
     <dimension dim="2">spin</dimension>
     <field>energy</field>
     <field>total</field>
     <field>integrated</field>
     <set>
      <set comment="spin 1">
       <r>    -6.7203     0.0000     0.0000 </r>
       <r>    -6.6670     0.0000     0.0000 </r>
       <r>    -6.6137     0.0000     0.0000 </r>
       <r>    -6.5603     0.0000     0.0000 </r>
       <r>    -6.5070     0.0000     0.0000 </r>
       <r>    -6.4537     0.0000     0.0000 </r>
       <r>    -6.4004     0.0000     0.0000 </r>
       <r>    -6.3471     0.0000     0.0000 </r>
       <r>    -6.2938     0.0000     0.0000 </r>
       <r>    -6.2404     0.0000     0.0000 </r>
       <r>    -6.1871     0.0000     0.0000 </r>
       <r>    -6.1338     0.0013     0.0001 </r>
       <r>    -6.0805     0.2525     0.0135 </r>
       <r>    -6.0272     6.0542     0.3363 </r>
       <r>    -5.9739    20.2375     1.4153 </r>
       <r>    -5.9206    10.2182     1.9601 </r>
       <r>    -5.8672     0.7420     1.9996 </r>
       <r>    -5.8139     0.0069     2.0000 </r>
       <r>    -5.7606     0.0000     2.0000 </r>
       <r>    -5.7073     0.0000     2.0000 </r>
       <r>    -5.6540     0.0000     2.0000 </r>
       <r>    -5.6007     0.0073     2.0004 </r>
       <r>    -5.5473     1.1230     2.0603 </r>
       <r>    -5.4940    21.9573     3.2309 </r>
       <r>    -5.4407    61.4497     6.5071 </r>
       <r>    -5.3874    26.3552     7.9123 </r>
       <r>    -5.3341     1.6327     7.9993 </r>
       <r>    -5.2808     0.0130     8.0000 </r>
       <r>    -5.2275     0.0000     8.0000 </r>
       <r>    -5.1741     0.0000     8.0000 </r>
       <r>    -5.1208     0.0007     8.0000 </r>
       <r>    -5.0675     0.2283     8.0122 </r>
       <r>    -5.0142     9.3582     8.5111 </r>
       <r>    -4.9609    52.5447    11.3126 </r>
       <r>    -4.9076    44.6423    13.6927 </r>
       <r>    -4.8543     5.6676    13.9949 </r>
       <r>    -4.8009     0.0963    14.0000 </r>
       <r>    -4.7476     0.0002    14.0000 </r>
       <r>    -4.6943     0.0001    14.0000 </r>
       <r>    -4.6410     0.0396    14.0021 </r>
       <r>    -4.5877     2.1613    14.1173 </r>
       <r>    -4.5344    15.9114    14.9657 </r>
       <r>    -4.4810    26.2741    16.3665 </r>
       <r>    -4.4277    55.2963    19.3146 </r>
       <r>    -4.3744    44.6223    21.6937 </r>
       <r>    -4.3211     5.6498    21.9949 </r>
       <r>    -4.2678     0.0960    22.0000 </r>
       <r>    -4.2145     0.0002    22.0000 </r>
       <r>    -4.1612     0.0059    22.0003 </r>
       <r>    -4.1078     1.1869    22.0636 </r>
       <r>    -4.0545    31.0796    23.7206 </r>
       <r>    -4.0012   117.3918    29.9794 </r>
       <r>    -3.9479    69.2397    33.6709 </r>
       <r>    -3.8946     8.7908    34.1396 </r>
       <r>    -3.8413    33.0126    35.8997 </r>
       <r>    -3.7879    59.7114    39.0832 </r>
       <r>    -3.7346    16.5474    39.9654 </r>
       <r>    -3.6813     0.6457    39.9998 </r>
       <r>    -3.6280     0.0032    40.0000 </r>
       <r>    -3.5747     0.0000    40.0000 </r>
       <r>    -3.5214     0.0000    40.0000 </r>
       <r>    -3.4681     0.0048    40.0003 </r>
       <r>    -3.4147     0.8438    40.0452 </r>
       <r>    -3.3614    18.9609    41.0561 </r>
       <r>    -3.3081    60.7076    44.2928 </r>
       <r>    -3.2548    29.8566    45.8846 </r>
       <r>    -3.2015     2.1446    45.9989 </r>
       <r>    -3.1482     0.0200    46.0000 </r>
       <r>    -3.0948     0.0075    46.0004 </r>
       <r>    -3.0415     1.1418    46.0613 </r>
       <r>    -2.9882    22.1203    47.2406 </r>
       <r>    -2.9349    61.4456    50.5166 </r>
       <r>    -2.8816    27.4292    51.9790 </r>
       <r>    -2.8283    33.4535    53.7626 </r>
       <r>    -2.7750   118.0710    60.0576 </r>
       <r>    -2.7216    68.0208    63.6841 </r>
       <r>    -2.6683     5.8576    63.9964 </r>
       <r>    -2.6150     0.0674    64.0000 </r>
       <r>    -2.5617     0.0001    64.0000 </r>
       <r>    -2.5084     0.0000    64.0000 </r>
       <r>    -2.4551     0.0000    64.0000 </r>
       <r>    -2.4018     0.0000    64.0000 </r>
       <r>    -2.3484     0.0000    64.0000 </r>
       <r>    -2.2951     0.0000    64.0000 </r>
       <r>    -2.2418     0.0000    64.0000 </r>
       <r>    -2.1885     0.0000    64.0000 </r>
       <r>    -2.1352     0.0000    64.0000 </r>
       <r>    -2.0819     0.0000    64.0000 </r>
       <r>    -2.0285     0.0000    64.0000 </r>
       <r>    -1.9752     0.0000    64.0000 </r>
       <r>    -1.9219     0.0000    64.0000 </r>
       <r>    -1.8686     0.0000    64.0000 </r>
       <r>    -1.8153     0.0000    64.0000 </r>
       <r>    -1.7620     0.0000    64.0000 </r>
       <r>    -1.7087     0.0000    64.0000 </r>
       <r>    -1.6553     0.0000    64.0000 </r>
       <r>    -1.6020     0.0000    64.0000 </r>
       <r>    -1.5487     0.0000    64.0000 </r>
       <r>    -1.4954     0.0000    64.0000 </r>
       <r>    -1.4421     0.0000    64.0000 </r>
       <r>    -1.3888     0.0099    64.0005 </r>
       <r>    -1.3354     1.7067    64.0915 </r>
       <r>    -1.2821    37.8174    66.1078 </r>
       <r>    -1.2288   122.5258    72.6403 </r>
       <r>    -1.1755    86.1795    77.2349 </r>
       <r>    -1.1222    66.5489    80.7830 </r>
       <r>    -1.0689    39.0812    82.8666 </r>
       <r>    -1.0156    63.8659    86.2716 </r>
       <r>    -0.9622    67.0883    89.8485 </r>
       <r>    -0.9089    61.5134    93.1281 </r>
       <r>    -0.8556    15.7496    93.9678 </r>
       <r>    -0.8023     0.6018    93.9998 </r>
       <r>    -0.7490     0.0029    94.0000 </r>
       <r>    -0.6957     0.0000    94.0000 </r>
       <r>    -0.6424     0.0000    94.0000 </r>
       <r>    -0.5890     0.0000    94.0000 </r>
       <r>    -0.5357     0.0000    94.0000 </r>
       <r>    -0.4824     0.0000    94.0000 </r>
       <r>    -0.4291     0.0000    94.0000 </r>
       <r>    -0.3758     0.0040    94.0002 </r>
       <r>    -0.3225     0.5224    94.0281 </r>
       <r>    -0.2691     8.8944    94.5023 </r>
       <r>    -0.2158    33.6669    96.2972 </r>
       <r>    -0.1625   100.5773   101.6595 </r>
       <r>    -0.1092   101.5754   107.0750 </r>
       <r>    -0.0559    16.9516   107.9788 </r>
       <r>    -0.0026     0.3962   107.9999 </r>
       <r>     0.0507     0.0012   108.0000 </r>
       <r>     0.1041     0.0000   108.0000 </r>
       <r>     0.1574     0.0000   108.0000 </r>
       <r>     0.2107     0.0000   108.0000 </r>
       <r>     0.2640     0.0000   108.0000 </r>
       <r>     0.3173     0.0000   108.0000 </r>
       <r>     0.3706     0.0000   108.0000 </r>
       <r>     0.4240     0.0000   108.0000 </r>
       <r>     0.4773     0.0000   108.0000 </r>
       <r>     0.5306     0.0000   108.0000 </r>
       <r>     0.5839     0.0141   108.0008 </r>
       <r>     0.6372     1.7017   108.0915 </r>
       <r>     0.6905    26.7051   109.5153 </r>
       <r>     0.7438    61.2491   112.7808 </r>
       <r>     0.7972    21.7441   113.9401 </r>
       <r>     0.8505     1.1168   113.9996 </r>
       <r>     0.9038     0.0104   114.0002 </r>
       <r>     0.9571     0.6264   114.0336 </r>
       <r>     1.0104    16.3233   114.9038 </r>
       <r>     1.0637    59.6450   118.0838 </r>
       <r>     1.1171    33.2099   119.8544 </r>
       <r>     1.1704     2.7021   119.9985 </r>
       <r>     1.2237     0.0286   120.0000 </r>
       <r>     1.2770     0.0000   120.0000 </r>
       <r>     1.3303     0.0000   120.0000 </r>
       <r>     1.3836     0.0000   120.0000 </r>
       <r>     1.4369     0.0000   120.0000 </r>
       <r>     1.4903     0.0003   120.0000 </r>
       <r>     1.5436     0.1595   120.0085 </r>
       <r>     1.5969    10.1416   120.5492 </r>
       <r>     1.6502    88.9917   125.2938 </r>
       <r>     1.7035   145.0233   133.0258 </r>
       <r>     1.7568    78.5918   137.2159 </r>
       <r>     1.8101    14.2547   137.9759 </r>
       <r>     1.8635     0.4501   137.9999 </r>
       <r>     1.9168     0.0018   138.0000 </r>
       <r>     1.9701     0.0000   138.0000 </r>
       <r>     2.0234     0.0000   138.0000 </r>
       <r>     2.0767     0.0000   138.0000 </r>
       <r>     2.1300     0.0057   138.0003 </r>
       <r>     2.1834     0.9664   138.0518 </r>
       <r>     2.2367    20.4868   139.1441 </r>
       <r>     2.2900    63.8981   142.5508 </r>
       <r>     2.3433    76.0548   146.6057 </r>
       <r>     2.3966   147.3193   154.4601 </r>
       <r>     2.4499   111.1425   160.3856 </r>
       <r>     2.5032    28.6839   161.9149 </r>
       <r>     2.5566     1.5834   161.9994 </r>
       <r>     2.6099     0.0615   162.0026 </r>
       <r>     2.6632     4.8704   162.2623 </r>
       <r>     2.7165    63.1052   165.6268 </r>
       <r>     2.7698   120.3117   172.0412 </r>
       <r>     2.8231    35.2656   173.9214 </r>
       <r>     2.8765     1.5026   174.0015 </r>
       <r>     2.9298     3.8098   174.2046 </r>
       <r>     2.9831    54.6883   177.1203 </r>
       <r>     3.0364   120.8269   183.5623 </r>
       <r>     3.0897    43.3409   185.8730 </r>
       <r>     3.1430     2.3648   185.9991 </r>
       <r>     3.1963     0.0176   186.0000 </r>
       <r>     3.2497     0.0970   186.0052 </r>
       <r>     3.3030     6.6042   186.3573 </r>
       <r>     3.3563    66.7257   189.9148 </r>
       <r>     3.4096   120.6481   196.3472 </r>
       <r>     3.4629    80.8491   200.6576 </r>
       <r>     3.5162    53.6152   203.5161 </r>
       <r>     3.5696     8.8698   203.9890 </r>
       <r>     3.6229     0.3081   204.0055 </r>
       <r>     3.6762     7.7627   204.4193 </r>
       <r>     3.7295    83.9509   208.8952 </r>
       <r>     3.7828   164.5713   217.6693 </r>
       <r>     3.8361    73.6557   221.5963 </r>
       <r>     3.8894     7.4450   221.9932 </r>
       <r>     3.9428     0.2356   222.0058 </r>
       <r>     3.9961     4.0430   222.2214 </r>
       <r>     4.0494    27.8874   223.7082 </r>
       <r>     4.1027    66.2462   227.2401 </r>
       <r>     4.1560    46.0334   229.6944 </r>
       <r>     4.2093     5.6489   229.9956 </r>
       <r>     4.2626     1.6113   230.0815 </r>
       <r>     4.3160    26.1295   231.4746 </r>
       <r>     4.3693    78.0721   235.6370 </r>
       <r>     4.4226    82.1174   240.0151 </r>
       <r>     4.4759    34.9527   241.8786 </r>
       <r>     4.5292    15.1221   242.6849 </r>
       <r>     4.5825    40.4141   244.8395 </r>
       <r>     4.6359    20.2660   245.9200 </r>
       <r>     4.6892     1.4857   245.9992 </r>
       <r>     4.7425     0.0327   246.0010 </r>
       <r>     4.7958     2.0391   246.1097 </r>
       <r>     4.8491    29.1702   247.6649 </r>
       <r>     4.9024    60.8882   250.9112 </r>
       <r>     4.9557    19.5243   251.9521 </r>
       <r>     5.0091     0.8928   251.9997 </r>
       <r>     5.0624     0.0052   252.0000 </r>
       <r>     5.1157     0.0000   252.0000 </r>
       <r>     5.1690     0.0000   252.0000 </r>
       <r>     5.2223     0.0129   252.0007 </r>
       <r>     5.2756     1.3903   252.0748 </r>
       <r>     5.3290    19.5910   253.1193 </r>
       <r>     5.3823    40.5092   255.2791 </r>
       <r>     5.4356    12.9277   255.9683 </r>
       <r>     5.4889     0.5910   255.9998 </r>
       <r>     5.5422     0.0034   256.0000 </r>
       <r>     5.5955     0.0000   256.0000 </r>
       <r>     5.6488     0.0000   256.0000 </r>
       <r>     5.7022     0.0000   256.0000 </r>
       <r>     5.7555     0.0000   256.0000 </r>
       <r>     5.8088     0.0000   256.0000 </r>
       <r>     5.8621     0.0000   256.0000 </r>
       <r>     5.9154     0.0000   256.0000 </r>
       <r>     5.9687     0.0000   256.0000 </r>
       <r>     6.0220     0.0000   256.0000 </r>
       <r>     6.0754     0.0000   256.0000 </r>
       <r>     6.1287     0.0000   256.0000 </r>
       <r>     6.1820     0.0000   256.0000 </r>
       <r>     6.2353     0.0000   256.0000 </r>
       <r>     6.2886     0.0000   256.0000 </r>
       <r>     6.3419     0.0000   256.0000 </r>
       <r>     6.3953     0.0001   256.0000 </r>
       <r>     6.4486     0.0679   256.0036 </r>
       <r>     6.5019     4.6032   256.2490 </r>
       <r>     6.5552    41.3480   258.4535 </r>
       <r>     6.6085    55.0917   261.3907 </r>
       <r>     6.6618    11.1177   261.9835 </r>
       <r>     6.7151     0.3086   261.9999 </r>
       <r>     6.7685     0.0011   262.0000 </r>
       <r>     6.8218     0.0000   262.0000 </r>
       <r>     6.8751     0.0153   262.0008 </r>
       <r>     6.9284     1.8078   262.0972 </r>
       <r>     6.9817    27.6040   263.5689 </r>
       <r>     7.0350    61.2370   266.8338 </r>
       <r>     7.0884    20.8540   267.9456 </r>
       <r>     7.1417     1.1879   268.0089 </r>
       <r>     7.1950     4.9686   268.2738 </r>
       <r>     7.2483    19.6311   269.3205 </r>
       <r>     7.3016    11.7175   269.9452 </r>
       <r>     7.3549     1.0238   269.9998 </r>
       <r>     7.4082     1.1453   270.0609 </r>
       <r>     7.4616    22.0534   271.2366 </r>
       <r>     7.5149    61.6215   274.5220 </r>
       <r>     7.5682    34.4065   276.3564 </r>
       <r>     7.6215    52.0151   279.1296 </r>
       <r>     7.6748    47.2972   281.6512 </r>
       <r>     7.7281    16.8240   282.5482 </r>
       <r>     7.7815    80.5298   286.8417 </r>
       <r>     7.8348   108.0341   292.6015 </r>
       <r>     7.8881    25.3022   293.9505 </r>
       <r>     7.9414     2.3284   294.0747 </r>
       <r>     7.9947    34.3961   295.9085 </r>
       <r>     8.0480   125.6752   302.6089 </r>
       <r>     8.1013    85.0742   307.1446 </r>
       <r>     8.1547    15.2670   307.9586 </r>
       <r>     8.2080     1.5596   308.0418 </r>
       <r>     8.2613    18.4271   309.0242 </r>
       <r>     8.3146    60.6956   312.2602 </r>
       <r>     8.3679    30.4240   313.8823 </r>
       <r>     8.4212     4.5726   314.1261 </r>
       <r>     8.4745    44.1039   316.4775 </r>
       <r>     8.5279   131.9074   323.5101 </r>
       <r>     8.5812    74.9684   327.5071 </r>
       <r>     8.6345     9.0266   327.9883 </r>
       <r>     8.6878     0.2178   328.0000 </r>
       <r>     8.7411     0.0008   328.0000 </r>
       <r>     8.7944     0.0000   328.0000 </r>
       <r>     8.8478     0.0000   328.0000 </r>
       <r>     8.9011     0.0000   328.0000 </r>
       <r>     8.9544     0.0000   328.0000 </r>
       <r>     9.0077     0.0000   328.0000 </r>
       <r>     9.0610     0.0000   328.0000 </r>
       <r>     9.1143     0.0000   328.0000 </r>
       <r>     9.1676     0.0000   328.0000 </r>
       <r>     9.2210     0.0000   328.0000 </r>
       <r>     9.2743     0.0000   328.0000 </r>
      </set>
     </set>
    </array>
   </total>
  </dos>
 </calculation>
 <structure name="finalpos" >
  <crystal>
   <varray name="basis" >
    <v>      10.93252578       0.00000000       0.00000000 </v>
    <v>       0.00000000      10.93252578       0.00000000 </v>
    <v>       0.00000000       0.00000000      10.93252578 </v>
   </varray>
   <i name="volume">   1306.65679237 </i>
   <varray name="rec_basis" >
    <v>       0.09147017       0.00000000       0.00000000 </v>
    <v>       0.00000000       0.09147017       0.00000000 </v>
    <v>       0.00000000       0.00000000       0.09147017 </v>
   </varray>
  </crystal>
  <varray name="positions" >
   <v>       0.44024411       0.43750000       0.43750000 </v>
   <v>       0.93750000       0.43750000       0.43750000 </v>
   <v>       0.43750000       0.93750000       0.43750000 </v>
   <v>       0.93750000       0.93750000       0.43750000 </v>
   <v>       0.43750000       0.43750000       0.93750000 </v>
   <v>       0.93750000       0.43750000       0.93750000 </v>
   <v>       0.43750000       0.93750000       0.93750000 </v>
   <v>       0.93750000       0.93750000       0.93750000 </v>
   <v>       0.43750000       0.18750000       0.18750000 </v>
   <v>       0.93750000       0.18750000       0.18750000 </v>
   <v>       0.43750000       0.68750000       0.18750000 </v>
   <v>       0.93750000       0.68750000       0.18750000 </v>
   <v>       0.43750000       0.18750000       0.68750000 </v>
   <v>       0.93750000       0.18750000       0.68750000 </v>
   <v>       0.43750000       0.68750000       0.68750000 </v>
   <v>       0.93750000       0.68750000       0.68750000 </v>
   <v>       0.18750000       0.43750000       0.18750000 </v>
   <v>       0.68750000       0.43750000       0.19024411 </v>
   <v>       0.18750000       0.93750000       0.18750000 </v>
   <v>       0.68750000       0.93750000       0.18750000 </v>
   <v>       0.18750000       0.43750000       0.68750000 </v>
   <v>       0.68750000       0.43750000       0.68750000 </v>
   <v>       0.18750000       0.93750000       0.68750000 </v>
   <v>       0.68750000       0.93750000       0.68750000 </v>
   <v>       0.18750000       0.18750000       0.43750000 </v>
   <v>       0.68750000       0.18750000       0.43750000 </v>
   <v>       0.18750000       0.68750000       0.43750000 </v>
   <v>       0.68750000       0.68750000       0.43750000 </v>
   <v>       0.18750000       0.18750000       0.93750000 </v>
   <v>       0.68750000       0.18750000       0.93750000 </v>
   <v>       0.18750000       0.68750000       0.93750000 </v>
   <v>       0.68750000       0.68750000       0.93750000 </v>
   <v>       0.06250000       0.06250000       0.06250000 </v>
   <v>       0.56250000       0.06250000       0.06250000 </v>
   <v>       0.06250000       0.56250000       0.06250000 </v>
   <v>       0.56250000       0.56250000       0.06250000 </v>
   <v>       0.06250000       0.06250000       0.56250000 </v>
   <v>       0.56250000       0.06250000       0.56250000 </v>
   <v>       0.06250000       0.56250000       0.56250000 </v>
   <v>       0.56250000       0.56250000       0.56250000 </v>
   <v>       0.06250000       0.31250000       0.31250000 </v>
   <v>       0.56250000       0.31250000       0.31250000 </v>
   <v>       0.06250000       0.81250000       0.31250000 </v>
   <v>       0.56250000       0.81250000       0.31250000 </v>
   <v>       0.06250000       0.31250000       0.81250000 </v>
   <v>       0.56250000       0.31250000       0.81250000 </v>
   <v>       0.06250000       0.81250000       0.81250000 </v>
   <v>       0.56250000       0.81250000       0.81250000 </v>
   <v>       0.31250000       0.06250000       0.31250000 </v>
   <v>       0.81250000       0.06250000       0.31250000 </v>
   <v>       0.31250000       0.56250000       0.31250000 </v>
   <v>       0.81250000       0.56250000       0.31250000 </v>
   <v>       0.31250000       0.06250000       0.81250000 </v>
   <v>       0.81250000       0.06250000       0.81250000 </v>
   <v>       0.31250000       0.56250000       0.81250000 </v>
   <v>       0.81250000       0.56250000       0.81250000 </v>
   <v>       0.31250000       0.31250000       0.06250000 </v>
   <v>       0.81250000       0.31250000       0.06250000 </v>
   <v>       0.31250000       0.81250000       0.06250000 </v>
   <v>       0.81250000       0.81250000       0.06250000 </v>
   <v>       0.31250000       0.31250000       0.56250000 </v>
   <v>       0.81250000       0.31250000       0.56250000 </v>
   <v>       0.31250000       0.81250000       0.56250000 </v>
   <v>       0.81250000       0.81250000       0.56250000 </v>
  </varray>
 </structure>
</modeling>
