
     Program PWSCF v.5.3.0 (svn rev. 11974) starts on  3Feb2016 at 13:32:22 

     This program is part of the open-source Quantum ESPRESSO suite
     for quantum simulation of materials; please cite
         "P. Giannozzi et al., J. Phys.:Condens. Matter 21 395502 (2009);
          URL http://www.quantum-espresso.org", 
     in publications or presentations arising from this work. More details at
     http://www.quantum-espresso.org/quote

     Parallel version (MPI), running on    16 processors
     R & G space division:  proc/nbgrp/npool/nimage =      16
     Reading input from Si.in

     Current dimensions of program PWSCF are:
     Max number of different atomic species (ntypx) = 10
     Max number of k-points (npk) =  40000
     Max angular momentum in pseudopotentials (lmaxx) =  3
               file Si.pbe-n-kjpaw_psl.0.1.UPF: wavefunction(s)  3S renormalized

     Subspace diagonalization in iterative solution of the eigenvalue problem:
     one sub-group per k-point group (pool) will be used
     scalapack distributed-memory algorithm (size of sub-group:  2*  2 procs)

 
     Parallelization info
     --------------------
     sticks:   dense  smooth     PW     G-vecs:    dense   smooth      PW
     Min         424     424    109                26332    26332    3467
     Max         425     425    110                26336    26336    3472
     Sum        6785    6785   1757               421349   421349   55515
 


     bravais-lattice index     =            0
     lattice parameter (alat)  =      20.6591  a.u.
     unit-cell volume          =    8817.2783 (a.u.)^3
     number of atoms/cell      =           64
     number of atomic types    =            1
     number of electrons       =       256.00
     number of Kohn-Sham states=          154
     kinetic-energy cutoff     =      50.0000  Ry
     charge density cutoff     =     200.0000  Ry
     convergence threshold     =      1.0E-09
     mixing beta               =       0.7000
     number of iterations used =            8  plain     mixing
     Exchange-correlation      =  SLA  PW   PBX  PBC ( 1  4  3  4 0 0)

     celldm(1)=  20.659106  celldm(2)=   0.000000  celldm(3)=   0.000000
     celldm(4)=   0.000000  celldm(5)=   0.000000  celldm(6)=   0.000000

     crystal axes: (cart. coord. in units of alat)
               a(1) = (   1.000000   0.000000   0.000000 )  
               a(2) = (   0.000000   1.000000   0.000000 )  
               a(3) = (   0.000000   0.000000   1.000000 )  

     reciprocal axes: (cart. coord. in units 2 pi/alat)
               b(1) = (  1.000000  0.000000  0.000000 )  
               b(2) = (  0.000000  1.000000  0.000000 )  
               b(3) = (  0.000000  0.000000  1.000000 )  


     PseudoPot. # 1 for Si read from file:
     /home/togo/espresso/pseudo/Si.pbe-n-kjpaw_psl.0.1.UPF
     MD5 check sum: b9d333a40e496bef61db012f150758bf
     Pseudo is Projector augmented-wave + core cor, Zval =  4.0
     Generated using "atomic" code by A. Dal Corso  v.5.0.2 svn rev. 9415
     Shape of augmentation charge: PSQ
     Using radial grid of 1141 points,  4 beta functions with: 
                l(1) =   0
                l(2) =   0
                l(3) =   1
                l(4) =   1
     Q(r) pseudized with 0 coefficients 


     atomic species   valence    mass     pseudopotential
        Si             4.00    28.08550     Si( 1.00)

     No symmetry found



   Cartesian axes

     site n.     atom                  positions (alat units)
         1           Si  tau(   1) = (   0.4404043   0.4375000   0.4375000  )
         2           Si  tau(   2) = (   0.9375000   0.4375000   0.4375000  )
         3           Si  tau(   3) = (   0.4375000   0.9375000   0.4375000  )
         4           Si  tau(   4) = (   0.9375000   0.9375000   0.4375000  )
         5           Si  tau(   5) = (   0.4375000   0.4375000   0.9375000  )
         6           Si  tau(   6) = (   0.9375000   0.4375000   0.9375000  )
         7           Si  tau(   7) = (   0.4375000   0.9375000   0.9375000  )
         8           Si  tau(   8) = (   0.9375000   0.9375000   0.9375000  )
         9           Si  tau(   9) = (   0.4375000   0.1875000   0.1875000  )
        10           Si  tau(  10) = (   0.9375000   0.1845957   0.1875000  )
        11           Si  tau(  11) = (   0.4375000   0.6875000   0.1875000  )
        12           Si  tau(  12) = (   0.9375000   0.6875000   0.1875000  )
        13           Si  tau(  13) = (   0.4375000   0.1875000   0.6875000  )
        14           Si  tau(  14) = (   0.9375000   0.1875000   0.6875000  )
        15           Si  tau(  15) = (   0.4375000   0.6875000   0.6875000  )
        16           Si  tau(  16) = (   0.9375000   0.6875000   0.6875000  )
        17           Si  tau(  17) = (   0.1875000   0.4375000   0.1875000  )
        18           Si  tau(  18) = (   0.6875000   0.4375000   0.1875000  )
        19           Si  tau(  19) = (   0.1875000   0.9375000   0.1875000  )
        20           Si  tau(  20) = (   0.6875000   0.9375000   0.1875000  )
        21           Si  tau(  21) = (   0.1875000   0.4375000   0.6875000  )
        22           Si  tau(  22) = (   0.6875000   0.4375000   0.6875000  )
        23           Si  tau(  23) = (   0.1875000   0.9375000   0.6875000  )
        24           Si  tau(  24) = (   0.6875000   0.9375000   0.6875000  )
        25           Si  tau(  25) = (   0.1875000   0.1875000   0.4375000  )
        26           Si  tau(  26) = (   0.6875000   0.1875000   0.4375000  )
        27           Si  tau(  27) = (   0.1875000   0.6875000   0.4375000  )
        28           Si  tau(  28) = (   0.6875000   0.6875000   0.4375000  )
        29           Si  tau(  29) = (   0.1875000   0.1875000   0.9375000  )
        30           Si  tau(  30) = (   0.6875000   0.1875000   0.9375000  )
        31           Si  tau(  31) = (   0.1875000   0.6875000   0.9375000  )
        32           Si  tau(  32) = (   0.6875000   0.6875000   0.9375000  )
        33           Si  tau(  33) = (   0.0625000   0.0625000   0.0625000  )
        34           Si  tau(  34) = (   0.5625000   0.0625000   0.0625000  )
        35           Si  tau(  35) = (   0.0625000   0.5625000   0.0625000  )
        36           Si  tau(  36) = (   0.5625000   0.5625000   0.0625000  )
        37           Si  tau(  37) = (   0.0625000   0.0625000   0.5625000  )
        38           Si  tau(  38) = (   0.5625000   0.0625000   0.5625000  )
        39           Si  tau(  39) = (   0.0625000   0.5625000   0.5625000  )
        40           Si  tau(  40) = (   0.5625000   0.5625000   0.5625000  )
        41           Si  tau(  41) = (   0.0625000   0.3125000   0.3125000  )
        42           Si  tau(  42) = (   0.5625000   0.3125000   0.3125000  )
        43           Si  tau(  43) = (   0.0625000   0.8125000   0.3125000  )
        44           Si  tau(  44) = (   0.5625000   0.8125000   0.3125000  )
        45           Si  tau(  45) = (   0.0625000   0.3125000   0.8125000  )
        46           Si  tau(  46) = (   0.5625000   0.3125000   0.8125000  )
        47           Si  tau(  47) = (   0.0625000   0.8125000   0.8125000  )
        48           Si  tau(  48) = (   0.5625000   0.8125000   0.8125000  )
        49           Si  tau(  49) = (   0.3125000   0.0625000   0.3125000  )
        50           Si  tau(  50) = (   0.8125000   0.0625000   0.3125000  )
        51           Si  tau(  51) = (   0.3125000   0.5625000   0.3125000  )
        52           Si  tau(  52) = (   0.8125000   0.5625000   0.3125000  )
        53           Si  tau(  53) = (   0.3125000   0.0625000   0.8125000  )
        54           Si  tau(  54) = (   0.8125000   0.0625000   0.8125000  )
        55           Si  tau(  55) = (   0.3125000   0.5625000   0.8125000  )
        56           Si  tau(  56) = (   0.8125000   0.5625000   0.8125000  )
        57           Si  tau(  57) = (   0.3125000   0.3125000   0.0625000  )
        58           Si  tau(  58) = (   0.8125000   0.3125000   0.0625000  )
        59           Si  tau(  59) = (   0.3125000   0.8125000   0.0625000  )
        60           Si  tau(  60) = (   0.8125000   0.8125000   0.0625000  )
        61           Si  tau(  61) = (   0.3125000   0.3125000   0.5625000  )
        62           Si  tau(  62) = (   0.8125000   0.3125000   0.5625000  )
        63           Si  tau(  63) = (   0.3125000   0.8125000   0.5625000  )
        64           Si  tau(  64) = (   0.8125000   0.8125000   0.5625000  )

     number of k points=     4  gaussian smearing, width (Ry)=  0.0100
                       cart. coord. in units 2pi/alat
        k(    1) = (   0.2500000   0.2500000   0.2500000), wk =   0.5000000
        k(    2) = (  -0.2500000  -0.2500000   0.2500000), wk =   0.5000000
        k(    3) = (  -0.2500000   0.2500000  -0.2500000), wk =   0.5000000
        k(    4) = (   0.2500000  -0.2500000  -0.2500000), wk =   0.5000000

     Dense  grid:   421349 G-vectors     FFT dimensions: (  96,  96,  96)

     Largest allocated arrays     est. size (Mb)     dimensions
        Kohn-Sham Wavefunctions         7.73 Mb     (    3289,  154)
        NL pseudopotentials            25.70 Mb     (    3289,  512)
        Each V/rho on FFT grid          0.84 Mb     (   55296)
        Each G-vector array             0.20 Mb     (   26336)
        G-vector shells                 0.01 Mb     (    1719)
     Largest temporary arrays     est. size (Mb)     dimensions
        Auxiliary wavefunctions        30.91 Mb     (    3289,  616)
        Each subspace H/S matrix        1.45 Mb     (     308,  308)
        Each <psi_i|beta_j> matrix      1.20 Mb     (     512,  154)
        Arrays for rho mixing           6.75 Mb     (   55296,    8)

     Check: negative/imaginary core charge=   -0.000001    0.000000

     Initial potential from superposition of free atoms

     starting charge  255.96421, renormalised to  256.00000
     Starting wfc are  256 randomized atomic wfcs
     Checking if some PAW data can be deallocated... 

     total cpu time spent up to now is        9.1 secs

     per-process dynamical memory:   114.9 Mb

     Self-consistent Calculation

     iteration #  1     ecut=    50.00 Ry     beta=0.70
     Davidson diagonalization with overlap
     ethr =  1.00E-02,  avg # of iterations =  3.0

     Threshold (ethr) on eigenvalues was too large:
     Diagonalizing with lowered threshold

     Davidson diagonalization with overlap
     ethr =  7.00E-04,  avg # of iterations =  1.0

     total cpu time spent up to now is       44.1 secs

     total energy              =   -2990.45692105 Ry
     Harris-Foulkes estimate   =   -2990.87684630 Ry
     estimated scf accuracy    <       1.77336973 Ry

     iteration #  2     ecut=    50.00 Ry     beta=0.70
     Davidson diagonalization with overlap
     ethr =  6.93E-04,  avg # of iterations =  1.0

     total cpu time spent up to now is       57.2 secs

     total energy              =   -2990.52361016 Ry
     Harris-Foulkes estimate   =   -2990.52747839 Ry
     estimated scf accuracy    <       0.07629669 Ry

     iteration #  3     ecut=    50.00 Ry     beta=0.70
     Davidson diagonalization with overlap
     ethr =  2.98E-05,  avg # of iterations = 11.2

     total cpu time spent up to now is       87.3 secs

     total energy              =   -2990.53063950 Ry
     Harris-Foulkes estimate   =   -2990.53135388 Ry
     estimated scf accuracy    <       0.00188187 Ry

     iteration #  4     ecut=    50.00 Ry     beta=0.70
     Davidson diagonalization with overlap
     ethr =  7.35E-07,  avg # of iterations =  6.8

     total cpu time spent up to now is      122.9 secs

     total energy              =   -2990.53054090 Ry
     Harris-Foulkes estimate   =   -2990.53255522 Ry
     estimated scf accuracy    <       0.00636245 Ry

     iteration #  5     ecut=    50.00 Ry     beta=0.70
     Davidson diagonalization with overlap
     ethr =  7.35E-07,  avg # of iterations =  4.2

     total cpu time spent up to now is      145.4 secs

     total energy              =   -2990.53148923 Ry
     Harris-Foulkes estimate   =   -2990.53159240 Ry
     estimated scf accuracy    <       0.00028943 Ry

     iteration #  6     ecut=    50.00 Ry     beta=0.70
     Davidson diagonalization with overlap
     ethr =  1.13E-07,  avg # of iterations =  2.0

     total cpu time spent up to now is      161.9 secs

     total energy              =   -2990.53154172 Ry
     Harris-Foulkes estimate   =   -2990.53155942 Ry
     estimated scf accuracy    <       0.00005015 Ry

     iteration #  7     ecut=    50.00 Ry     beta=0.70
     Davidson diagonalization with overlap
     ethr =  1.96E-08,  avg # of iterations =  3.0

     total cpu time spent up to now is      179.6 secs

     total energy              =   -2990.53155085 Ry
     Harris-Foulkes estimate   =   -2990.53155245 Ry
     estimated scf accuracy    <       0.00000364 Ry

     iteration #  8     ecut=    50.00 Ry     beta=0.70
     Davidson diagonalization with overlap
     ethr =  1.42E-09,  avg # of iterations =  3.0

     total cpu time spent up to now is      200.5 secs

     total energy              =   -2990.53155195 Ry
     Harris-Foulkes estimate   =   -2990.53155214 Ry
     estimated scf accuracy    <       0.00000043 Ry

     iteration #  9     ecut=    50.00 Ry     beta=0.70
     Davidson diagonalization with overlap
     ethr =  1.69E-10,  avg # of iterations =  2.8

     total cpu time spent up to now is      218.5 secs

     total energy              =   -2990.53155196 Ry
     Harris-Foulkes estimate   =   -2990.53155205 Ry
     estimated scf accuracy    <       0.00000015 Ry

     iteration # 10     ecut=    50.00 Ry     beta=0.70
     Davidson diagonalization with overlap
     ethr =  5.86E-11,  avg # of iterations =  3.0

     total cpu time spent up to now is      235.7 secs

     total energy              =   -2990.53155194 Ry
     Harris-Foulkes estimate   =   -2990.53155199 Ry
     estimated scf accuracy    <       0.00000006 Ry

     iteration # 11     ecut=    50.00 Ry     beta=0.70
     Davidson diagonalization with overlap
     ethr =  2.28E-11,  avg # of iterations =  2.0

     total cpu time spent up to now is      252.3 secs

     total energy              =   -2990.53155195 Ry
     Harris-Foulkes estimate   =   -2990.53155195 Ry
     estimated scf accuracy    <          1.8E-09 Ry

     iteration # 12     ecut=    50.00 Ry     beta=0.70
     Davidson diagonalization with overlap
     ethr =  6.93E-13,  avg # of iterations =  3.0

     total cpu time spent up to now is      276.5 secs

     total energy              =   -2990.53155195 Ry
     Harris-Foulkes estimate   =   -2990.53155195 Ry
     estimated scf accuracy    <          1.3E-09 Ry

     iteration # 13     ecut=    50.00 Ry     beta=0.70
     Davidson diagonalization with overlap
     ethr =  5.09E-13,  avg # of iterations =  2.5

     total cpu time spent up to now is      294.3 secs

     End of self-consistent calculation

          k = 0.2500 0.2500 0.2500 ( 52563 PWs)   bands (ev):

    -5.6251  -5.1000  -5.0967  -5.0923  -4.6003  -4.5970  -4.5928  -4.1632
    -4.0668  -4.0639  -4.0595  -3.6561  -3.6493  -3.6475  -3.6457  -3.6447
    -3.6390  -3.4591  -3.4548  -3.4505  -2.9617  -2.9591  -2.9551  -2.5930
    -2.5891  -2.5857  -2.4303  -2.4233  -2.4214  -2.4194  -2.4176  -2.4126
    -0.8887  -0.8815  -0.8785  -0.8772  -0.8747  -0.8695  -0.7839  -0.7804
    -0.7769  -0.6673  -0.6622  -0.6568  -0.5823  -0.5752  -0.5707   0.1263
     0.2012   0.2076   0.2100   0.2114   0.2146   0.2197   1.0810   1.0858
     1.0894   1.4144   1.4183   1.4222   2.0243   2.0257   2.0294   2.0300
     2.0312   2.0340   2.0852   2.0885   2.0913   2.6378   2.6399   2.6425
     2.7369   2.7395   2.7429   2.7439   2.7463   2.7490   2.7926   2.7959
     2.8012   3.1011   3.1056   3.1068   3.1079   3.1089   3.1152   3.3686
     3.3724   3.3741   3.3825   3.3861   3.3901   3.7304   3.7349   3.7383
     3.7527   3.7568   3.7600   3.8361   3.8397   3.8429   4.1057   4.1124
     4.1137   4.1150   4.1169   4.1215   4.1499   4.1539   4.1578   4.4131
     4.4674   4.4714   4.4741   4.7104   4.7147   4.7182   4.7751   4.7791
     4.7830   4.9319   4.9406   5.2382   5.2438   5.2487   5.7191   5.7289
     6.9324   6.9367   6.9396   7.3710   7.3779   7.3813   7.5987   7.8566
     7.8630   7.8658   7.9876   7.9917   7.9957   8.1478   8.1520   8.1534
     8.1654   8.1702   8.1727   8.3944   8.3992   8.4026   8.4031   8.4051
     8.4096   8.4484

          k =-0.2500-0.2500 0.2500 ( 52563 PWs)   bands (ev):

    -5.6251  -5.1004  -5.0959  -5.0927  -4.6009  -4.5963  -4.5930  -4.1631
    -4.0676  -4.0626  -4.0598  -3.6570  -3.6499  -3.6469  -3.6452  -3.6448
    -3.6388  -3.4589  -3.4549  -3.4505  -2.9638  -2.9576  -2.9543  -2.5930
    -2.5891  -2.5857  -2.4301  -2.4232  -2.4209  -2.4189  -2.4183  -2.4130
    -0.8870  -0.8814  -0.8781  -0.8772  -0.8751  -0.8715  -0.7838  -0.7804
    -0.7767  -0.6674  -0.6623  -0.6567  -0.5836  -0.5758  -0.5689   0.1264
     0.2017   0.2068   0.2099   0.2132   0.2146   0.2183   1.0792   1.0859
     1.0910   1.4138   1.4186   1.4226   2.0242   2.0271   2.0288   2.0294
     2.0315   2.0335   2.0851   2.0885   2.0913   2.6377   2.6402   2.6424
     2.7370   2.7387   2.7431   2.7451   2.7471   2.7477   2.7929   2.7971
     2.7997   3.1004   3.1047   3.1075   3.1089   3.1099   3.1141   3.3693
     3.3714   3.3743   3.3820   3.3862   3.3906   3.7305   3.7346   3.7386
     3.7529   3.7561   3.7606   3.8360   3.8403   3.8422   4.1061   4.1116
     4.1141   4.1149   4.1171   4.1217   4.1497   4.1547   4.1568   4.4129
     4.4676   4.4708   4.4746   4.7106   4.7150   4.7178   4.7728   4.7789
     4.7853   4.9319   4.9406   5.2385   5.2443   5.2479   5.7191   5.7289
     6.9330   6.9356   6.9400   7.3733   7.3775   7.3795   7.5987   7.8585
     7.8617   7.8651   7.9877   7.9918   7.9956   8.1491   8.1509   8.1543
     8.1662   8.1679   8.1732   8.3939   8.3990   8.4018   8.4045   8.4066
     8.4084   8.4482

          k =-0.2500 0.2500-0.2500 ( 52563 PWs)   bands (ev):

    -5.6251  -5.0990  -5.0978  -5.0919  -4.5995  -4.5985  -4.5923  -4.1643
    -4.0665  -4.0653  -4.0594  -3.6528  -3.6502  -3.6497  -3.6468  -3.6420
    -3.6378  -3.4577  -3.4553  -3.4493  -2.9647  -2.9615  -2.9551  -2.5925
    -2.5909  -2.5833  -2.4271  -2.4241  -2.4229  -2.4207  -2.4150  -2.4129
    -0.8859  -0.8826  -0.8815  -0.8780  -0.8739  -0.8713  -0.7855  -0.7830
    -0.7752  -0.6683  -0.6631  -0.6603  -0.5771  -0.5715  -0.5666   0.1300
     0.2015   0.2032   0.2075   0.2109   0.2134   0.2190   1.0832   1.0880
     1.0922   1.4156   1.4178   1.4214   2.0243   2.0274   2.0284   2.0293
     2.0310   2.0332   2.0849   2.0862   2.0907   2.6399   2.6413   2.6449
     2.7345   2.7382   2.7419   2.7434   2.7457   2.7468   2.7914   2.7952
     2.7965   3.1024   3.1047   3.1060   3.1083   3.1114   3.1136   3.3691
     3.3701   3.3726   3.3821   3.3844   3.3882   3.7336   3.7351   3.7406
     3.7562   3.7586   3.7645   3.8346   3.8392   3.8413   4.1115   4.1135
     4.1144   4.1174   4.1203   4.1244   4.1481   4.1533   4.1562   4.4173
     4.4668   4.4679   4.4711   4.7083   4.7136   4.7154   4.7792   4.7838
     4.7884   4.9325   4.9375   5.2352   5.2423   5.2449   5.7188   5.7244
     6.9317   6.9339   6.9380   7.3716   7.3758   7.3804   7.5972   7.8572
     7.8593   7.8641   7.9882   7.9945   7.9965   8.1484   8.1506   8.1536
     8.1666   8.1678   8.1712   8.3962   8.4007   8.4031   8.4057   8.4077
     8.4112   8.4460

          k = 0.2500-0.2500-0.2500 ( 52563 PWs)   bands (ev):

    -5.6250  -5.1010  -5.0947  -5.0937  -4.6011  -4.5950  -4.5940  -4.1621
    -4.0673  -4.0615  -4.0601  -3.6607  -3.6468  -3.6465  -3.6456  -3.6436
    -3.6421  -3.4602  -3.4542  -3.4520  -2.9602  -2.9558  -2.9542  -2.5954
    -2.5877  -2.5857  -2.4325  -2.4214  -2.4204  -2.4192  -2.4173  -2.4156
    -0.8864  -0.8812  -0.8776  -0.8757  -0.8745  -0.8717  -0.7855  -0.7777
    -0.7755  -0.6641  -0.6615  -0.6557  -0.5891  -0.5770  -0.5749   0.1225
     0.2031   0.2091   0.2112   0.2134   0.2166   0.2202   1.0769   1.0841
     1.0878   1.4166   1.4171   1.4214   2.0249   2.0262   2.0281   2.0305
     2.0325   2.0330   2.0873   2.0890   2.0919   2.6353   2.6389   2.6402
     2.7392   2.7402   2.7432   2.7459   2.7483   2.7494   2.7953   2.7999
     2.8016   3.1002   3.1051   3.1077   3.1088   3.1103   3.1124   3.3711
     3.3736   3.3744   3.3855   3.3865   3.3901   3.7276   3.7345   3.7358
     3.7491   3.7546   3.7565   3.8382   3.8413   3.8425   4.1022   4.1076
     4.1115   4.1149   4.1158   4.1167   4.1524   4.1556   4.1573   4.4090
     4.4712   4.4740   4.4749   4.7138   4.7169   4.7188   4.7678   4.7761
     4.7783   4.9350   4.9400   5.2427   5.2467   5.2497   5.7235   5.7293
     6.9346   6.9386   6.9406   7.3741   7.3768   7.3815   7.6002   7.8605
     7.8629   7.8669   7.9870   7.9888   7.9948   8.1495   8.1513   8.1542
     8.1672   8.1710   8.1722   8.3927   8.3951   8.4019   8.4033   8.4042
     8.4057   8.4509

     the Fermi energy is     6.3280 ev

!    total energy              =   -2990.53155195 Ry
     Harris-Foulkes estimate   =   -2990.53155195 Ry
     estimated scf accuracy    <          4.9E-10 Ry

     total all-electron energy =    -37124.667105 Ry

     The total energy is the sum of the following terms:

     one-electron contribution =     178.60655765 Ry
     hartree contribution      =      35.70142732 Ry
     xc contribution           =    -391.44199742 Ry
     ewald contribution        =    -534.00623372 Ry
     one-center paw contrib.   =   -2279.39130580 Ry
     smearing contrib. (-TS)   =       0.00000000 Ry

     convergence has been achieved in  13 iterations

     Forces acting on atoms (Ry/au):

     atom    1 type  1   force =    -0.01590000   -0.00004246    0.00007766
     atom    2 type  1   force =    -0.00008716   -0.00023157   -0.00022728
     atom    3 type  1   force =     0.00004519   -0.00004227   -0.00007601
     atom    4 type  1   force =    -0.00012086   -0.00023806    0.00023278
     atom    5 type  1   force =     0.00006408   -0.00004260   -0.00007750
     atom    6 type  1   force =     0.00010280   -0.00023135    0.00022754
     atom    7 type  1   force =    -0.00046582   -0.00004310    0.00007624
     atom    8 type  1   force =     0.00013879   -0.00023837   -0.00023263
     atom    9 type  1   force =    -0.00052831    0.00005932    0.00011354
     atom   10 type  1   force =    -0.00000003    0.01590028    0.00000904
     atom   11 type  1   force =    -0.00052373    0.00011666   -0.00011075
     atom   12 type  1   force =     0.00000101   -0.00001327   -0.00001055
     atom   13 type  1   force =    -0.00052376    0.00036571    0.00010963
     atom   14 type  1   force =     0.00000078   -0.00006364    0.00001015
     atom   15 type  1   force =    -0.00052828   -0.00013857   -0.00011307
     atom   16 type  1   force =    -0.00000020   -0.00000311   -0.00000867
     atom   17 type  1   force =     0.00000409   -0.00034140    0.00011703
     atom   18 type  1   force =     0.00046594   -0.00034559   -0.00012404
     atom   19 type  1   force =     0.00027589   -0.00024755   -0.00019210
     atom   20 type  1   force =    -0.00019060   -0.00024757    0.00018966
     atom   21 type  1   force =     0.00030877    0.00006719   -0.00023635
     atom   22 type  1   force =     0.00016067    0.00007120    0.00024293
     atom   23 type  1   force =    -0.00003265   -0.00003348    0.00006845
     atom   24 type  1   force =     0.00011826   -0.00003327   -0.00006603
     atom   25 type  1   force =     0.00034122    0.00075150   -0.00000040
     atom   26 type  1   force =     0.00035146    0.00029593   -0.00022803
     atom   27 type  1   force =     0.00024131   -0.00022878    0.00011960
     atom   28 type  1   force =     0.00024739    0.00023302    0.00010494
     atom   29 type  1   force =    -0.00007072    0.00045091    0.00010455
     atom   30 type  1   force =    -0.00006715    0.00060018   -0.00011931
     atom   31 type  1   force =     0.00003360    0.00007766    0.00001856
     atom   32 type  1   force =     0.00003284   -0.00007724   -0.00000032
     atom   33 type  1   force =     0.00268417   -0.00389830   -0.00267435
     atom   34 type  1   force =     0.00029419    0.00008843   -0.00002264
     atom   35 type  1   force =     0.00006428    0.00003927   -0.00001355
     atom   36 type  1   force =    -0.00003547    0.00002383    0.00001115
     atom   37 type  1   force =     0.00007682    0.00008602   -0.00001182
     atom   38 type  1   force =    -0.00003309   -0.00021705    0.00002272
     atom   39 type  1   force =     0.00001429    0.00001149    0.00001363
     atom   40 type  1   force =     0.00396052    0.00272621    0.00267521
     atom   41 type  1   force =    -0.00249407   -0.00385034   -0.00251988
     atom   42 type  1   force =     0.00389191   -0.00264720   -0.00275644
     atom   43 type  1   force =    -0.00001146   -0.00001279   -0.00006528
     atom   44 type  1   force =    -0.00008731   -0.00006666   -0.00007948
     atom   45 type  1   force =    -0.00002509    0.00003235   -0.00006218
     atom   46 type  1   force =    -0.00008816   -0.00030260   -0.00006623
     atom   47 type  1   force =    -0.00004965   -0.00005988   -0.00005702
     atom   48 type  1   force =     0.00022454   -0.00000664   -0.00005840
     atom   49 type  1   force =    -0.00009708    0.00002359    0.00010128
     atom   50 type  1   force =    -0.00267685   -0.00395546    0.00273322
     atom   51 type  1   force =     0.00378598   -0.00250841    0.00250834
     atom   52 type  1   force =    -0.00005050   -0.00002575    0.00007562
     atom   53 type  1   force =     0.00022477   -0.00028372    0.00005619
     atom   54 type  1   force =    -0.00007206    0.00003000    0.00007011
     atom   55 type  1   force =    -0.00008951   -0.00002997    0.00006874
     atom   56 type  1   force =     0.00000152   -0.00005528    0.00005208
     atom   57 type  1   force =    -0.00002126    0.00010993    0.00001364
     atom   58 type  1   force =     0.00250987   -0.00378233    0.00245482
     atom   59 type  1   force =     0.00027945   -0.00000050    0.00000044
     atom   60 type  1   force =     0.00001641    0.00004300    0.00000642
     atom   61 type  1   force =     0.00383990    0.00222877   -0.00245413
     atom   62 type  1   force =     0.00003895    0.00009688   -0.00000005
     atom   63 type  1   force =    -0.00002751    0.00005887   -0.00001960
     atom   64 type  1   force =     0.00005667   -0.00000209   -0.00000184

     Total force =     0.027162     Total SCF correction =     0.000045

     Writing output data file pwscf.save
 
     init_run     :      8.72s CPU      8.84s WALL (       1 calls)
     electrons    :    280.74s CPU    287.06s WALL (       1 calls)
     forces       :      4.12s CPU      4.19s WALL (       1 calls)

     Called by init_run:
     wfcinit      :      8.14s CPU      8.21s WALL (       1 calls)
     potinit      :      0.24s CPU      0.24s WALL (       1 calls)

     Called by electrons:
     c_bands      :    252.70s CPU    257.08s WALL (      14 calls)
     sum_band     :     23.94s CPU     24.10s WALL (      14 calls)
     v_of_rho     :      0.68s CPU      0.69s WALL (      14 calls)
     newd         :      0.97s CPU      1.01s WALL (      14 calls)
     PAW_pot      :      2.31s CPU      2.31s WALL (      14 calls)
     mix_rho      :      0.31s CPU      0.32s WALL (      14 calls)

     Called by c_bands:
     init_us_2    :      2.72s CPU      2.74s WALL (     120 calls)
     cegterg      :    247.82s CPU    252.03s WALL (      56 calls)

     Called by sum_band:
     sum_band:bec :      0.05s CPU      0.05s WALL (      56 calls)
     addusdens    :      1.00s CPU      1.10s WALL (      14 calls)

     Called by *egterg:
     h_psi        :    116.75s CPU    116.99s WALL (     254 calls)
     s_psi        :     30.43s CPU     30.47s WALL (     254 calls)
     g_psi        :      1.06s CPU      1.06s WALL (     194 calls)
     cdiaghg      :     37.56s CPU     37.58s WALL (     246 calls)

     Called by h_psi:
     add_vuspsi   :     30.38s CPU     30.41s WALL (     254 calls)

     General routines
     calbec       :     46.87s CPU     46.94s WALL (     326 calls)
     fft          :      0.39s CPU      0.40s WALL (     195 calls)
     fftw         :     56.75s CPU     56.95s WALL (   57026 calls)
     davcio       :      0.00s CPU      0.01s WALL (       4 calls)
 
     Parallel routines
     fft_scatter  :     15.42s CPU     15.19s WALL (   57221 calls)
 
     PWSCF        :  4m53.89s CPU     5m43.44s WALL

 
   This run was terminated on:  13:38: 6   3Feb2016            

=------------------------------------------------------------------------------=
   JOB DONE.
=------------------------------------------------------------------------------=
