
     Program PWSCF v.5.3.0 (svn rev. 11974) starts on  3Feb2016 at 13:48:27 

     This program is part of the open-source Quantum ESPRESSO suite
     for quantum simulation of materials; please cite
         "P. Giannozzi et al., J. Phys.:Condens. Matter 21 395502 (2009);
          URL http://www.quantum-espresso.org", 
     in publications or presentations arising from this work. More details at
     http://www.quantum-espresso.org/quote

     Parallel version (MPI), running on    16 processors
     R & G space division:  proc/nbgrp/npool/nimage =      16
     Reading input from Si.in

     Current dimensions of program PWSCF are:
     Max number of different atomic species (ntypx) = 10
     Max number of k-points (npk) =  40000
     Max angular momentum in pseudopotentials (lmaxx) =  3
               file Si.pbe-n-kjpaw_psl.0.1.UPF: wavefunction(s)  3S renormalized

     Subspace diagonalization in iterative solution of the eigenvalue problem:
     one sub-group per k-point group (pool) will be used
     scalapack distributed-memory algorithm (size of sub-group:  2*  2 procs)

 
     Parallelization info
     --------------------
     sticks:   dense  smooth     PW     G-vecs:    dense   smooth      PW
     Min         424     424    109                26332    26332    3467
     Max         425     425    110                26336    26336    3472
     Sum        6785    6785   1757               421349   421349   55515
 


     bravais-lattice index     =            0
     lattice parameter (alat)  =      20.6591  a.u.
     unit-cell volume          =    8817.2783 (a.u.)^3
     number of atoms/cell      =           64
     number of atomic types    =            1
     number of electrons       =       256.00
     number of Kohn-Sham states=          154
     kinetic-energy cutoff     =      50.0000  Ry
     charge density cutoff     =     200.0000  Ry
     convergence threshold     =      1.0E-09
     mixing beta               =       0.7000
     number of iterations used =            8  plain     mixing
     Exchange-correlation      =  SLA  PW   PBX  PBC ( 1  4  3  4 0 0)

     celldm(1)=  20.659106  celldm(2)=   0.000000  celldm(3)=   0.000000
     celldm(4)=   0.000000  celldm(5)=   0.000000  celldm(6)=   0.000000

     crystal axes: (cart. coord. in units of alat)
               a(1) = (   1.000000   0.000000   0.000000 )  
               a(2) = (   0.000000   1.000000   0.000000 )  
               a(3) = (   0.000000   0.000000   1.000000 )  

     reciprocal axes: (cart. coord. in units 2 pi/alat)
               b(1) = (  1.000000  0.000000  0.000000 )  
               b(2) = (  0.000000  1.000000  0.000000 )  
               b(3) = (  0.000000  0.000000  1.000000 )  


     PseudoPot. # 1 for Si read from file:
     /home/togo/espresso/pseudo/Si.pbe-n-kjpaw_psl.0.1.UPF
     MD5 check sum: b9d333a40e496bef61db012f150758bf
     Pseudo is Projector augmented-wave + core cor, Zval =  4.0
     Generated using "atomic" code by A. Dal Corso  v.5.0.2 svn rev. 9415
     Shape of augmentation charge: PSQ
     Using radial grid of 1141 points,  4 beta functions with: 
                l(1) =   0
                l(2) =   0
                l(3) =   1
                l(4) =   1
     Q(r) pseudized with 0 coefficients 


     atomic species   valence    mass     pseudopotential
        Si             4.00    28.08550     Si( 1.00)

     No symmetry found



   Cartesian axes

     site n.     atom                  positions (alat units)
         1           Si  tau(   1) = (   0.4404043   0.4375000   0.4375000  )
         2           Si  tau(   2) = (   0.9375000   0.4375000   0.4375000  )
         3           Si  tau(   3) = (   0.4375000   0.9375000   0.4375000  )
         4           Si  tau(   4) = (   0.9375000   0.9375000   0.4375000  )
         5           Si  tau(   5) = (   0.4375000   0.4375000   0.9375000  )
         6           Si  tau(   6) = (   0.9375000   0.4375000   0.9375000  )
         7           Si  tau(   7) = (   0.4375000   0.9375000   0.9375000  )
         8           Si  tau(   8) = (   0.9375000   0.9375000   0.9375000  )
         9           Si  tau(   9) = (   0.4375000   0.1875000   0.1875000  )
        10           Si  tau(  10) = (   0.9375000   0.1875000   0.1875000  )
        11           Si  tau(  11) = (   0.4375000   0.6875000   0.1875000  )
        12           Si  tau(  12) = (   0.9375000   0.6875000   0.1875000  )
        13           Si  tau(  13) = (   0.4375000   0.1875000   0.6875000  )
        14           Si  tau(  14) = (   0.9375000   0.1875000   0.6875000  )
        15           Si  tau(  15) = (   0.4375000   0.6875000   0.6875000  )
        16           Si  tau(  16) = (   0.9375000   0.6875000   0.6875000  )
        17           Si  tau(  17) = (   0.1875000   0.4375000   0.1875000  )
        18           Si  tau(  18) = (   0.6875000   0.4375000   0.1875000  )
        19           Si  tau(  19) = (   0.1875000   0.9375000   0.1875000  )
        20           Si  tau(  20) = (   0.6875000   0.9375000   0.1875000  )
        21           Si  tau(  21) = (   0.1875000   0.4375000   0.6875000  )
        22           Si  tau(  22) = (   0.6875000   0.4375000   0.6875000  )
        23           Si  tau(  23) = (   0.1875000   0.9375000   0.6875000  )
        24           Si  tau(  24) = (   0.6875000   0.9375000   0.6875000  )
        25           Si  tau(  25) = (   0.1875000   0.1875000   0.4375000  )
        26           Si  tau(  26) = (   0.6875000   0.1875000   0.4375000  )
        27           Si  tau(  27) = (   0.1875000   0.6875000   0.4375000  )
        28           Si  tau(  28) = (   0.6875000   0.6875000   0.4375000  )
        29           Si  tau(  29) = (   0.1875000   0.1875000   0.9375000  )
        30           Si  tau(  30) = (   0.6875000   0.1875000   0.9375000  )
        31           Si  tau(  31) = (   0.1875000   0.6875000   0.9375000  )
        32           Si  tau(  32) = (   0.6875000   0.6875000   0.9375000  )
        33           Si  tau(  33) = (   0.0625000   0.0625000   0.0625000  )
        34           Si  tau(  34) = (   0.5625000   0.0625000   0.0625000  )
        35           Si  tau(  35) = (   0.0625000   0.5625000   0.0625000  )
        36           Si  tau(  36) = (   0.5625000   0.5625000   0.0625000  )
        37           Si  tau(  37) = (   0.0625000   0.0625000   0.5625000  )
        38           Si  tau(  38) = (   0.5625000   0.0625000   0.5625000  )
        39           Si  tau(  39) = (   0.0625000   0.5625000   0.5625000  )
        40           Si  tau(  40) = (   0.5625000   0.5625000   0.5625000  )
        41           Si  tau(  41) = (   0.0625000   0.3125000   0.3125000  )
        42           Si  tau(  42) = (   0.5625000   0.3125000   0.3125000  )
        43           Si  tau(  43) = (   0.0625000   0.8125000   0.3125000  )
        44           Si  tau(  44) = (   0.5625000   0.8125000   0.3125000  )
        45           Si  tau(  45) = (   0.0625000   0.3125000   0.8125000  )
        46           Si  tau(  46) = (   0.5625000   0.3125000   0.8125000  )
        47           Si  tau(  47) = (   0.0625000   0.8125000   0.8125000  )
        48           Si  tau(  48) = (   0.5625000   0.8125000   0.8125000  )
        49           Si  tau(  49) = (   0.3125000   0.0625000   0.3125000  )
        50           Si  tau(  50) = (   0.8125000   0.0625000   0.3154043  )
        51           Si  tau(  51) = (   0.3125000   0.5625000   0.3125000  )
        52           Si  tau(  52) = (   0.8125000   0.5625000   0.3125000  )
        53           Si  tau(  53) = (   0.3125000   0.0625000   0.8125000  )
        54           Si  tau(  54) = (   0.8125000   0.0625000   0.8125000  )
        55           Si  tau(  55) = (   0.3125000   0.5625000   0.8125000  )
        56           Si  tau(  56) = (   0.8125000   0.5625000   0.8125000  )
        57           Si  tau(  57) = (   0.3125000   0.3125000   0.0625000  )
        58           Si  tau(  58) = (   0.8125000   0.3125000   0.0625000  )
        59           Si  tau(  59) = (   0.3125000   0.8125000   0.0625000  )
        60           Si  tau(  60) = (   0.8125000   0.8125000   0.0625000  )
        61           Si  tau(  61) = (   0.3125000   0.3125000   0.5625000  )
        62           Si  tau(  62) = (   0.8125000   0.3125000   0.5625000  )
        63           Si  tau(  63) = (   0.3125000   0.8125000   0.5625000  )
        64           Si  tau(  64) = (   0.8125000   0.8125000   0.5625000  )

     number of k points=     4  gaussian smearing, width (Ry)=  0.0100
                       cart. coord. in units 2pi/alat
        k(    1) = (   0.2500000   0.2500000   0.2500000), wk =   0.5000000
        k(    2) = (  -0.2500000  -0.2500000   0.2500000), wk =   0.5000000
        k(    3) = (  -0.2500000   0.2500000  -0.2500000), wk =   0.5000000
        k(    4) = (   0.2500000  -0.2500000  -0.2500000), wk =   0.5000000

     Dense  grid:   421349 G-vectors     FFT dimensions: (  96,  96,  96)

     Largest allocated arrays     est. size (Mb)     dimensions
        Kohn-Sham Wavefunctions         7.73 Mb     (    3289,  154)
        NL pseudopotentials            25.70 Mb     (    3289,  512)
        Each V/rho on FFT grid          0.84 Mb     (   55296)
        Each G-vector array             0.20 Mb     (   26336)
        G-vector shells                 0.01 Mb     (    1719)
     Largest temporary arrays     est. size (Mb)     dimensions
        Auxiliary wavefunctions        30.91 Mb     (    3289,  616)
        Each subspace H/S matrix        1.45 Mb     (     308,  308)
        Each <psi_i|beta_j> matrix      1.20 Mb     (     512,  154)
        Arrays for rho mixing           6.75 Mb     (   55296,    8)

     Check: negative/imaginary core charge=   -0.000001    0.000000

     Initial potential from superposition of free atoms

     starting charge  255.96421, renormalised to  256.00000
     Starting wfc are  256 randomized atomic wfcs
     Checking if some PAW data can be deallocated... 

     total cpu time spent up to now is        9.0 secs

     per-process dynamical memory:   114.9 Mb

     Self-consistent Calculation

     iteration #  1     ecut=    50.00 Ry     beta=0.70
     Davidson diagonalization with overlap
     ethr =  1.00E-02,  avg # of iterations =  3.0

     Threshold (ethr) on eigenvalues was too large:
     Diagonalizing with lowered threshold

     Davidson diagonalization with overlap
     ethr =  7.00E-04,  avg # of iterations =  1.0

     total cpu time spent up to now is       54.7 secs

     total energy              =   -2990.45693177 Ry
     Harris-Foulkes estimate   =   -2990.87683423 Ry
     estimated scf accuracy    <       1.77324111 Ry

     iteration #  2     ecut=    50.00 Ry     beta=0.70
     Davidson diagonalization with overlap
     ethr =  6.93E-04,  avg # of iterations =  1.0

     total cpu time spent up to now is       72.7 secs

     total energy              =   -2990.52359997 Ry
     Harris-Foulkes estimate   =   -2990.52748603 Ry
     estimated scf accuracy    <       0.07633061 Ry

     iteration #  3     ecut=    50.00 Ry     beta=0.70
     Davidson diagonalization with overlap
     ethr =  2.98E-05,  avg # of iterations = 11.0

     total cpu time spent up to now is      102.7 secs

     total energy              =   -2990.53052625 Ry
     Harris-Foulkes estimate   =   -2990.53138586 Ry
     estimated scf accuracy    <       0.00203828 Ry

     iteration #  4     ecut=    50.00 Ry     beta=0.70
     Davidson diagonalization with overlap
     ethr =  7.96E-07,  avg # of iterations =  6.0

     total cpu time spent up to now is      136.5 secs

     total energy              =   -2990.53018114 Ry
     Harris-Foulkes estimate   =   -2990.53295263 Ry
     estimated scf accuracy    <       0.00895718 Ry

     iteration #  5     ecut=    50.00 Ry     beta=0.70
     Davidson diagonalization with overlap
     ethr =  7.96E-07,  avg # of iterations =  5.0

     total cpu time spent up to now is      161.6 secs

     total energy              =   -2990.53148406 Ry
     Harris-Foulkes estimate   =   -2990.53160312 Ry
     estimated scf accuracy    <       0.00033534 Ry

     iteration #  6     ecut=    50.00 Ry     beta=0.70
     Davidson diagonalization with overlap
     ethr =  1.31E-07,  avg # of iterations =  2.5

     total cpu time spent up to now is      178.3 secs

     total energy              =   -2990.53154423 Ry
     Harris-Foulkes estimate   =   -2990.53156144 Ry
     estimated scf accuracy    <       0.00004894 Ry

     iteration #  7     ecut=    50.00 Ry     beta=0.70
     Davidson diagonalization with overlap
     ethr =  1.91E-08,  avg # of iterations =  2.2

     total cpu time spent up to now is      198.0 secs

     total energy              =   -2990.53155317 Ry
     Harris-Foulkes estimate   =   -2990.53155477 Ry
     estimated scf accuracy    <       0.00000361 Ry

     iteration #  8     ecut=    50.00 Ry     beta=0.70
     Davidson diagonalization with overlap
     ethr =  1.41E-09,  avg # of iterations =  3.0

     total cpu time spent up to now is      218.7 secs

     total energy              =   -2990.53155424 Ry
     Harris-Foulkes estimate   =   -2990.53155447 Ry
     estimated scf accuracy    <       0.00000056 Ry

     iteration #  9     ecut=    50.00 Ry     beta=0.70
     Davidson diagonalization with overlap
     ethr =  2.19E-10,  avg # of iterations =  3.0

     total cpu time spent up to now is      243.8 secs

     total energy              =   -2990.53155427 Ry
     Harris-Foulkes estimate   =   -2990.53155438 Ry
     estimated scf accuracy    <       0.00000022 Ry

     iteration # 10     ecut=    50.00 Ry     beta=0.70
     Davidson diagonalization with overlap
     ethr =  8.62E-11,  avg # of iterations =  2.0

     total cpu time spent up to now is      260.2 secs

     total energy              =   -2990.53155425 Ry
     Harris-Foulkes estimate   =   -2990.53155431 Ry
     estimated scf accuracy    <       0.00000005 Ry

     iteration # 11     ecut=    50.00 Ry     beta=0.70
     Davidson diagonalization with overlap
     ethr =  1.99E-11,  avg # of iterations =  2.0

     total cpu time spent up to now is      276.9 secs

     total energy              =   -2990.53155427 Ry
     Harris-Foulkes estimate   =   -2990.53155426 Ry
     estimated scf accuracy    <          1.8E-09 Ry

     iteration # 12     ecut=    50.00 Ry     beta=0.70
     Davidson diagonalization with overlap
     ethr =  6.88E-13,  avg # of iterations =  3.0

     total cpu time spent up to now is      301.3 secs

     total energy              =   -2990.53155427 Ry
     Harris-Foulkes estimate   =   -2990.53155427 Ry
     estimated scf accuracy    <          1.2E-09 Ry

     iteration # 13     ecut=    50.00 Ry     beta=0.70
     Davidson diagonalization with overlap
     ethr =  4.52E-13,  avg # of iterations =  3.0

     total cpu time spent up to now is      322.7 secs

     End of self-consistent calculation

          k = 0.2500 0.2500 0.2500 ( 52563 PWs)   bands (ev):

    -5.6251  -5.1001  -5.0970  -5.0920  -4.6004  -4.5974  -4.5925  -4.1632
    -4.0670  -4.0643  -4.0588  -3.6557  -3.6492  -3.6489  -3.6457  -3.6441
    -3.6386  -3.4590  -3.4548  -3.4505  -2.9627  -2.9597  -2.9533  -2.5930
    -2.5891  -2.5856  -2.4295  -2.4233  -2.4224  -2.4193  -2.4176  -2.4124
    -0.8881  -0.8820  -0.8797  -0.8765  -0.8741  -0.8696  -0.7838  -0.7803
    -0.7770  -0.6672  -0.6624  -0.6569  -0.5836  -0.5760  -0.5686   0.1263
     0.2027   0.2055   0.2087   0.2122   0.2159   0.2196   1.0798   1.0850
     1.0912   1.4140   1.4181   1.4228   2.0241   2.0266   2.0283   2.0296
     2.0309   2.0347   2.0851   2.0881   2.0921   2.6378   2.6400   2.6424
     2.7364   2.7390   2.7425   2.7444   2.7474   2.7483   2.7927   2.7958
     2.8015   3.1020   3.1046   3.1065   3.1072   3.1099   3.1152   3.3698
     3.3718   3.3731   3.3819   3.3868   3.3904   3.7308   3.7351   3.7378
     3.7521   3.7564   3.7611   3.8362   3.8392   3.8431   4.1063   4.1119
     4.1131   4.1149   4.1166   4.1225   4.1500   4.1534   4.1580   4.4132
     4.4687   4.4711   4.4731   4.7105   4.7141   4.7186   4.7734   4.7786
     4.7851   4.9319   4.9406   5.2383   5.2433   5.2491   5.7191   5.7289
     6.9330   6.9361   6.9396   7.3711   7.3777   7.3813   7.5987   7.8567
     7.8631   7.8659   7.9876   7.9918   7.9957   8.1470   8.1520   8.1542
     8.1674   8.1692   8.1716   8.3968   8.3985   8.4001   8.4032   8.4058
     8.4097   8.4481

          k =-0.2500-0.2500 0.2500 ( 52563 PWs)   bands (ev):

    -5.6251  -5.0990  -5.0979  -5.0919  -4.5994  -4.5985  -4.5924  -4.1643
    -4.0663  -4.0653  -4.0595  -3.6513  -3.6506  -3.6496  -3.6479  -3.6406
    -3.6396  -3.4576  -3.4548  -3.4498  -2.9635  -2.9621  -2.9557  -2.5924
    -2.5891  -2.5853  -2.4257  -2.4244  -2.4228  -2.4218  -2.4159  -2.4121
    -0.8856  -0.8833  -0.8810  -0.8793  -0.8741  -0.8700  -0.7848  -0.7807
    -0.7781  -0.6678  -0.6625  -0.6614  -0.5770  -0.5722  -0.5660   0.1300
     0.2020   0.2053   0.2065   0.2095   0.2154   0.2169   1.0831   1.0887
     1.0915   1.4155   1.4186   1.4207   2.0251   2.0265   2.0284   2.0296
     2.0311   2.0331   2.0849   2.0862   2.0906   2.6401   2.6424   2.6436
     2.7357   2.7379   2.7414   2.7440   2.7452   2.7463   2.7916   2.7939
     2.7975   3.1023   3.1047   3.1061   3.1079   3.1120   3.1135   3.3689
     3.3695   3.3724   3.3826   3.3853   3.3878   3.7337   3.7351   3.7405
     3.7560   3.7599   3.7636   3.8349   3.8389   3.8414   4.1117   4.1131
     4.1150   4.1169   4.1192   4.1255   4.1482   4.1529   4.1563   4.4172
     4.4669   4.4679   4.4711   4.7087   4.7132   4.7155   4.7792   4.7844
     4.7878   4.9324   4.9376   5.2356   5.2418   5.2450   5.7189   5.7244
     6.9318   6.9338   6.9380   7.3707   7.3769   7.3802   7.5972   7.8561
     7.8605   7.8640   7.9892   7.9938   7.9963   8.1477   8.1509   8.1538
     8.1663   8.1681   8.1711   8.3979   8.4001   8.4037   8.4049   8.4085
     8.4098   8.4459

          k =-0.2500 0.2500-0.2500 ( 52563 PWs)   bands (ev):

    -5.6251  -5.1006  -5.0963  -5.0922  -4.6009  -4.5966  -4.5927  -4.1632
    -4.0677  -4.0632  -4.0592  -3.6567  -3.6498  -3.6470  -3.6449  -3.6444
    -3.6396  -3.4588  -3.4548  -3.4506  -2.9638  -2.9578  -2.9541  -2.5931
    -2.5892  -2.5856  -2.4305  -2.4233  -2.4207  -2.4191  -2.4184  -2.4126
    -0.8885  -0.8818  -0.8781  -0.8766  -0.8751  -0.8699  -0.7839  -0.7805
    -0.7770  -0.6674  -0.6622  -0.6569  -0.5838  -0.5752  -0.5691   0.1263
     0.2014   0.2063   0.2106   0.2133   0.2145   0.2184   1.0794   1.0861
     1.0906   1.4137   1.4186   1.4226   2.0243   2.0264   2.0279   2.0294
     2.0320   2.0342   2.0850   2.0887   2.0916   2.6383   2.6400   2.6418
     2.7369   2.7395   2.7416   2.7442   2.7468   2.7492   2.7926   2.7964
     2.8012   3.1011   3.1045   3.1078   3.1085   3.1099   3.1136   3.3692
     3.3720   3.3740   3.3818   3.3861   3.3907   3.7302   3.7349   3.7384
     3.7539   3.7569   3.7592   3.8357   3.8405   3.8423   4.1055   4.1120
     4.1138   4.1150   4.1170   4.1221   4.1494   4.1550   4.1570   4.4129
     4.4679   4.4708   4.4744   4.7101   4.7151   4.7181   4.7730   4.7791
     4.7848   4.9319   4.9406   5.2379   5.2445   5.2484   5.7191   5.7289
     6.9324   6.9363   6.9400   7.3709   7.3784   7.3808   7.5987   7.8568
     7.8631   7.8658   7.9876   7.9918   7.9956   8.1471   8.1517   8.1546
     8.1656   8.1692   8.1733   8.3942   8.3989   8.4028   8.4039   8.4057
     8.4086   8.4483

          k = 0.2500-0.2500-0.2500 ( 52563 PWs)   bands (ev):

    -5.6250  -5.0995  -5.0966  -5.0934  -4.5994  -4.5969  -4.5937  -4.1620
    -4.0660  -4.0634  -4.0596  -3.6550  -3.6523  -3.6466  -3.6462  -3.6439
    -3.6413  -3.4595  -3.4548  -3.4521  -2.9593  -2.9582  -2.9525  -2.5936
    -2.5894  -2.5860  -2.4292  -2.4250  -2.4206  -2.4201  -2.4168  -2.4146
    -0.8866  -0.8812  -0.8778  -0.8774  -0.8730  -0.8713  -0.7824  -0.7797
    -0.7762  -0.6632  -0.6619  -0.6561  -0.5883  -0.5778  -0.5749   0.1226
     0.2066   0.2094   0.2109   0.2117   0.2160   0.2190   1.0761   1.0849
     1.0879   1.4152   1.4184   1.4215   2.0242   2.0272   2.0284   2.0302
     2.0321   2.0331   2.0873   2.0890   2.0920   2.6366   2.6377   2.6401
     2.7390   2.7406   2.7445   2.7454   2.7477   2.7491   2.7953   2.7992
     2.8023   3.1031   3.1050   3.1074   3.1082   3.1086   3.1122   3.3713
     3.3733   3.3742   3.3849   3.3870   3.3904   3.7295   3.7330   3.7358
     3.7493   3.7536   3.7568   3.8385   3.8408   3.8427   4.1028   4.1083
     4.1124   4.1145   4.1149   4.1159   4.1527   4.1551   4.1575   4.4091
     4.4709   4.4739   4.4750   4.7140   4.7165   4.7190   4.7674   4.7766
     4.7783   4.9350   4.9400   5.2429   5.2462   5.2500   5.7236   5.7293
     6.9346   6.9386   6.9405   7.3735   7.3771   7.3819   7.6002   7.8598
     7.8633   7.8672   7.9872   7.9895   7.9941   8.1490   8.1504   8.1556
     8.1670   8.1707   8.1725   8.3946   8.3964   8.4005   8.4029   8.4037
     8.4051   8.4505

     the Fermi energy is     6.3276 ev

!    total energy              =   -2990.53155427 Ry
     Harris-Foulkes estimate   =   -2990.53155427 Ry
     estimated scf accuracy    <          5.4E-10 Ry

     total all-electron energy =    -37124.667107 Ry

     The total energy is the sum of the following terms:

     one-electron contribution =     178.60650316 Ry
     hartree contribution      =      35.70145057 Ry
     xc contribution           =    -391.44199616 Ry
     ewald contribution        =    -534.00620654 Ry
     one-center paw contrib.   =   -2279.39130530 Ry
     smearing contrib. (-TS)   =       0.00000000 Ry

     convergence has been achieved in  13 iterations

     Forces acting on atoms (Ry/au):

     atom    1 type  1   force =    -0.01586099   -0.00002774    0.00025567
     atom    2 type  1   force =     0.00007334   -0.00003847   -0.00006021
     atom    3 type  1   force =     0.00009279   -0.00005063   -0.00006059
     atom    4 type  1   force =     0.00269824   -0.00270514    0.00392930
     atom    5 type  1   force =     0.00008528   -0.00003019   -0.00002137
     atom    6 type  1   force =     0.00002025   -0.00002477    0.00002580
     atom    7 type  1   force =    -0.00045024   -0.00002770    0.00002627
     atom    8 type  1   force =     0.00006301   -0.00003869   -0.00001257
     atom    9 type  1   force =    -0.00056600    0.00006303    0.00005628
     atom   10 type  1   force =    -0.00248223   -0.00247260    0.00382097
     atom   11 type  1   force =    -0.00055211    0.00008164    0.00014286
     atom   12 type  1   force =    -0.00004983   -0.00002691   -0.00006878
     atom   13 type  1   force =    -0.00055043   -0.00013861    0.00013722
     atom   14 type  1   force =    -0.00003697   -0.00004797   -0.00000264
     atom   15 type  1   force =    -0.00055961   -0.00014495   -0.00013552
     atom   16 type  1   force =    -0.00002867   -0.00003562    0.00001926
     atom   17 type  1   force =     0.00025940   -0.00008190    0.00048055
     atom   18 type  1   force =     0.00028912   -0.00007594   -0.00029223
     atom   19 type  1   force =     0.00007949    0.00004106   -0.00013555
     atom   20 type  1   force =     0.00252433    0.00247197    0.00388767
     atom   21 type  1   force =     0.00026197    0.00014089   -0.00024874
     atom   22 type  1   force =     0.00026684    0.00014110    0.00026123
     atom   23 type  1   force =     0.00006905    0.00003770    0.00010550
     atom   24 type  1   force =     0.00008136    0.00004703   -0.00008865
     atom   25 type  1   force =     0.00019278    0.00027751   -0.00017036
     atom   26 type  1   force =    -0.00246656    0.00247348    0.00381481
     atom   27 type  1   force =     0.00020407   -0.00019857    0.00036573
     atom   28 type  1   force =     0.00018808    0.00027185    0.00005378
     atom   29 type  1   force =     0.00001704   -0.00005057    0.00001651
     atom   30 type  1   force =     0.00000533    0.00011415   -0.00002209
     atom   31 type  1   force =     0.00001147    0.00010849   -0.00001184
     atom   32 type  1   force =     0.00001597   -0.00005060    0.00003553
     atom   33 type  1   force =    -0.00024894   -0.00007968    0.00026249
     atom   34 type  1   force =     0.00048384    0.00013701    0.00025937
     atom   35 type  1   force =     0.00010396    0.00001844    0.00006739
     atom   36 type  1   force =    -0.00013794    0.00006027    0.00008107
     atom   37 type  1   force =     0.00025892   -0.00008959    0.00026480
     atom   38 type  1   force =    -0.00029336    0.00015234    0.00028836
     atom   39 type  1   force =    -0.00008825    0.00002903    0.00008131
     atom   40 type  1   force =     0.00400593    0.00271496    0.00274844
     atom   41 type  1   force =     0.00009737    0.00007135   -0.00056168
     atom   42 type  1   force =     0.00404194   -0.00282125   -0.00323269
     atom   43 type  1   force =    -0.00008739    0.00008926   -0.00055515
     atom   44 type  1   force =    -0.00017029   -0.00014843   -0.00057345
     atom   45 type  1   force =     0.00003575   -0.00001648   -0.00002427
     atom   46 type  1   force =    -0.00005104   -0.00005911   -0.00003930
     atom   47 type  1   force =    -0.00003073   -0.00002202   -0.00003152
     atom   48 type  1   force =     0.00024628   -0.00003803   -0.00002690
     atom   49 type  1   force =    -0.00005900   -0.00003769    0.00010634
     atom   50 type  1   force =     0.00002889   -0.00002632   -0.01586113
     atom   51 type  1   force =     0.00381005   -0.00248220    0.00200657
     atom   52 type  1   force =    -0.00001218   -0.00003751    0.00009249
     atom   53 type  1   force =     0.00025181   -0.00002855    0.00002046
     atom   54 type  1   force =    -0.00002090   -0.00003141    0.00005332
     atom   55 type  1   force =    -0.00005909   -0.00005071    0.00006184
     atom   56 type  1   force =     0.00002900   -0.00002814    0.00001970
     atom   57 type  1   force =    -0.00006845    0.00012908    0.00000565
     atom   58 type  1   force =    -0.00008092   -0.00019914    0.00020476
     atom   59 type  1   force =     0.00026132   -0.00005027    0.00001524
     atom   60 type  1   force =     0.00008934    0.00025831    0.00020042
     atom   61 type  1   force =     0.00380149    0.00240662   -0.00243921
     atom   62 type  1   force =    -0.00012604    0.00027042    0.00020052
     atom   63 type  1   force =    -0.00004983    0.00011310   -0.00000867
     atom   64 type  1   force =     0.00014287   -0.00020601    0.00020960

     Total force =     0.027142     Total SCF correction =     0.000047

     Writing output data file pwscf.save
 
     init_run     :      8.74s CPU      8.83s WALL (       1 calls)
     electrons    :    291.39s CPU    313.90s WALL (       1 calls)
     forces       :      4.11s CPU      4.16s WALL (       1 calls)

     Called by init_run:
     wfcinit      :      8.15s CPU      8.21s WALL (       1 calls)
     potinit      :      0.23s CPU      0.24s WALL (       1 calls)

     Called by electrons:
     c_bands      :    262.39s CPU    284.55s WALL (      14 calls)
     sum_band     :     24.89s CPU     25.08s WALL (      14 calls)
     v_of_rho     :      0.68s CPU      0.68s WALL (      14 calls)
     newd         :      0.99s CPU      1.00s WALL (      14 calls)
     PAW_pot      :      2.30s CPU      2.31s WALL (      14 calls)
     mix_rho      :      0.31s CPU      0.31s WALL (      14 calls)

     Called by c_bands:
     init_us_2    :      2.59s CPU      2.62s WALL (     120 calls)
     cegterg      :    247.54s CPU    251.71s WALL (      56 calls)

     Called by sum_band:
     sum_band:bec :      0.05s CPU      0.05s WALL (      56 calls)
     addusdens    :      0.98s CPU      1.09s WALL (      14 calls)

     Called by *egterg:
     h_psi        :    117.11s CPU    117.65s WALL (     251 calls)
     s_psi        :     30.41s CPU     30.49s WALL (     251 calls)
     g_psi        :      1.06s CPU      1.07s WALL (     191 calls)
     cdiaghg      :     36.74s CPU     36.88s WALL (     243 calls)

     Called by h_psi:
     add_vuspsi   :     30.58s CPU     30.64s WALL (     251 calls)

     General routines
     calbec       :     46.76s CPU     46.86s WALL (     323 calls)
     fft          :      0.39s CPU      0.40s WALL (     195 calls)
     fftw         :     58.31s CPU     58.67s WALL (   57152 calls)
     davcio       :      0.00s CPU      0.04s WALL (       4 calls)
 
     Parallel routines
     fft_scatter  :     16.72s CPU     16.88s WALL (   57347 calls)
 
     PWSCF        :  5m 4.57s CPU     5m36.20s WALL

 
   This run was terminated on:  13:54: 3   3Feb2016            

=------------------------------------------------------------------------------=
   JOB DONE.
=------------------------------------------------------------------------------=
