
     Program PWSCF v.5.3.0 (svn rev. 11974) starts on  3Feb2016 at 13:31:57 

     This program is part of the open-source Quantum ESPRESSO suite
     for quantum simulation of materials; please cite
         "P. Giannozzi et al., J. Phys.:Condens. Matter 21 395502 (2009);
          URL http://www.quantum-espresso.org", 
     in publications or presentations arising from this work. More details at
     http://www.quantum-espresso.org/quote

     Parallel version (MPI), running on    16 processors
     R & G space division:  proc/nbgrp/npool/nimage =      16
     Reading input from Si.in

     Current dimensions of program PWSCF are:
     Max number of different atomic species (ntypx) = 10
     Max number of k-points (npk) =  40000
     Max angular momentum in pseudopotentials (lmaxx) =  3
               file Si.pbe-n-kjpaw_psl.0.1.UPF: wavefunction(s)  3S renormalized

     Subspace diagonalization in iterative solution of the eigenvalue problem:
     one sub-group per k-point group (pool) will be used
     scalapack distributed-memory algorithm (size of sub-group:  2*  2 procs)

 
     Parallelization info
     --------------------
     sticks:   dense  smooth     PW     G-vecs:    dense   smooth      PW
     Min         424     424    109                26332    26332    3467
     Max         425     425    110                26336    26336    3472
     Sum        6785    6785   1757               421349   421349   55515
 


     bravais-lattice index     =            0
     lattice parameter (alat)  =      20.6591  a.u.
     unit-cell volume          =    8817.2783 (a.u.)^3
     number of atoms/cell      =           64
     number of atomic types    =            1
     number of electrons       =       256.00
     number of Kohn-Sham states=          154
     kinetic-energy cutoff     =      50.0000  Ry
     charge density cutoff     =     200.0000  Ry
     convergence threshold     =      1.0E-09
     mixing beta               =       0.7000
     number of iterations used =            8  plain     mixing
     Exchange-correlation      =  SLA  PW   PBX  PBC ( 1  4  3  4 0 0)

     celldm(1)=  20.659106  celldm(2)=   0.000000  celldm(3)=   0.000000
     celldm(4)=   0.000000  celldm(5)=   0.000000  celldm(6)=   0.000000

     crystal axes: (cart. coord. in units of alat)
               a(1) = (   1.000000   0.000000   0.000000 )  
               a(2) = (   0.000000   1.000000   0.000000 )  
               a(3) = (   0.000000   0.000000   1.000000 )  

     reciprocal axes: (cart. coord. in units 2 pi/alat)
               b(1) = (  1.000000  0.000000  0.000000 )  
               b(2) = (  0.000000  1.000000  0.000000 )  
               b(3) = (  0.000000  0.000000  1.000000 )  


     PseudoPot. # 1 for Si read from file:
     /home/togo/espresso/pseudo/Si.pbe-n-kjpaw_psl.0.1.UPF
     MD5 check sum: b9d333a40e496bef61db012f150758bf
     Pseudo is Projector augmented-wave + core cor, Zval =  4.0
     Generated using "atomic" code by A. Dal Corso  v.5.0.2 svn rev. 9415
     Shape of augmentation charge: PSQ
     Using radial grid of 1141 points,  4 beta functions with: 
                l(1) =   0
                l(2) =   0
                l(3) =   1
                l(4) =   1
     Q(r) pseudized with 0 coefficients 


     atomic species   valence    mass     pseudopotential
        Si             4.00    28.08550     Si( 1.00)

     No symmetry found



   Cartesian axes

     site n.     atom                  positions (alat units)
         1           Si  tau(   1) = (   0.4404043   0.4375000   0.4375000  )
         2           Si  tau(   2) = (   0.9375000   0.4375000   0.4375000  )
         3           Si  tau(   3) = (   0.4354464   0.9354464   0.4375000  )
         4           Si  tau(   4) = (   0.9375000   0.9375000   0.4375000  )
         5           Si  tau(   5) = (   0.4375000   0.4375000   0.9375000  )
         6           Si  tau(   6) = (   0.9375000   0.4375000   0.9375000  )
         7           Si  tau(   7) = (   0.4375000   0.9375000   0.9375000  )
         8           Si  tau(   8) = (   0.9375000   0.9375000   0.9375000  )
         9           Si  tau(   9) = (   0.4375000   0.1875000   0.1875000  )
        10           Si  tau(  10) = (   0.9375000   0.1875000   0.1875000  )
        11           Si  tau(  11) = (   0.4375000   0.6875000   0.1875000  )
        12           Si  tau(  12) = (   0.9375000   0.6875000   0.1875000  )
        13           Si  tau(  13) = (   0.4375000   0.1875000   0.6875000  )
        14           Si  tau(  14) = (   0.9375000   0.1875000   0.6875000  )
        15           Si  tau(  15) = (   0.4375000   0.6875000   0.6875000  )
        16           Si  tau(  16) = (   0.9375000   0.6875000   0.6875000  )
        17           Si  tau(  17) = (   0.1875000   0.4375000   0.1875000  )
        18           Si  tau(  18) = (   0.6875000   0.4375000   0.1875000  )
        19           Si  tau(  19) = (   0.1875000   0.9375000   0.1875000  )
        20           Si  tau(  20) = (   0.6875000   0.9375000   0.1875000  )
        21           Si  tau(  21) = (   0.1875000   0.4375000   0.6875000  )
        22           Si  tau(  22) = (   0.6875000   0.4375000   0.6875000  )
        23           Si  tau(  23) = (   0.1875000   0.9375000   0.6875000  )
        24           Si  tau(  24) = (   0.6875000   0.9375000   0.6875000  )
        25           Si  tau(  25) = (   0.1875000   0.1875000   0.4375000  )
        26           Si  tau(  26) = (   0.6875000   0.1875000   0.4375000  )
        27           Si  tau(  27) = (   0.1875000   0.6875000   0.4375000  )
        28           Si  tau(  28) = (   0.6875000   0.6875000   0.4375000  )
        29           Si  tau(  29) = (   0.1875000   0.1875000   0.9375000  )
        30           Si  tau(  30) = (   0.6875000   0.1875000   0.9375000  )
        31           Si  tau(  31) = (   0.1875000   0.6875000   0.9375000  )
        32           Si  tau(  32) = (   0.6875000   0.6875000   0.9375000  )
        33           Si  tau(  33) = (   0.0625000   0.0625000   0.0625000  )
        34           Si  tau(  34) = (   0.5625000   0.0625000   0.0625000  )
        35           Si  tau(  35) = (   0.0625000   0.5625000   0.0625000  )
        36           Si  tau(  36) = (   0.5625000   0.5625000   0.0625000  )
        37           Si  tau(  37) = (   0.0625000   0.0625000   0.5625000  )
        38           Si  tau(  38) = (   0.5625000   0.0625000   0.5625000  )
        39           Si  tau(  39) = (   0.0625000   0.5625000   0.5625000  )
        40           Si  tau(  40) = (   0.5625000   0.5625000   0.5625000  )
        41           Si  tau(  41) = (   0.0625000   0.3125000   0.3125000  )
        42           Si  tau(  42) = (   0.5625000   0.3125000   0.3125000  )
        43           Si  tau(  43) = (   0.0625000   0.8125000   0.3125000  )
        44           Si  tau(  44) = (   0.5625000   0.8125000   0.3125000  )
        45           Si  tau(  45) = (   0.0625000   0.3125000   0.8125000  )
        46           Si  tau(  46) = (   0.5625000   0.3125000   0.8125000  )
        47           Si  tau(  47) = (   0.0625000   0.8125000   0.8125000  )
        48           Si  tau(  48) = (   0.5625000   0.8125000   0.8125000  )
        49           Si  tau(  49) = (   0.3125000   0.0625000   0.3125000  )
        50           Si  tau(  50) = (   0.8125000   0.0625000   0.3125000  )
        51           Si  tau(  51) = (   0.3125000   0.5625000   0.3125000  )
        52           Si  tau(  52) = (   0.8125000   0.5625000   0.3125000  )
        53           Si  tau(  53) = (   0.3125000   0.0625000   0.8125000  )
        54           Si  tau(  54) = (   0.8125000   0.0625000   0.8125000  )
        55           Si  tau(  55) = (   0.3125000   0.5625000   0.8125000  )
        56           Si  tau(  56) = (   0.8125000   0.5625000   0.8125000  )
        57           Si  tau(  57) = (   0.3125000   0.3125000   0.0625000  )
        58           Si  tau(  58) = (   0.8125000   0.3125000   0.0625000  )
        59           Si  tau(  59) = (   0.3125000   0.8125000   0.0625000  )
        60           Si  tau(  60) = (   0.8125000   0.8125000   0.0625000  )
        61           Si  tau(  61) = (   0.3125000   0.3125000   0.5625000  )
        62           Si  tau(  62) = (   0.8125000   0.3125000   0.5625000  )
        63           Si  tau(  63) = (   0.3125000   0.8125000   0.5625000  )
        64           Si  tau(  64) = (   0.8125000   0.8125000   0.5625000  )

     number of k points=     4  gaussian smearing, width (Ry)=  0.0100
                       cart. coord. in units 2pi/alat
        k(    1) = (   0.2500000   0.2500000   0.2500000), wk =   0.5000000
        k(    2) = (  -0.2500000  -0.2500000   0.2500000), wk =   0.5000000
        k(    3) = (  -0.2500000   0.2500000  -0.2500000), wk =   0.5000000
        k(    4) = (   0.2500000  -0.2500000  -0.2500000), wk =   0.5000000

     Dense  grid:   421349 G-vectors     FFT dimensions: (  96,  96,  96)

     Largest allocated arrays     est. size (Mb)     dimensions
        Kohn-Sham Wavefunctions         7.73 Mb     (    3289,  154)
        NL pseudopotentials            25.70 Mb     (    3289,  512)
        Each V/rho on FFT grid          0.84 Mb     (   55296)
        Each G-vector array             0.20 Mb     (   26336)
        G-vector shells                 0.01 Mb     (    1719)
     Largest temporary arrays     est. size (Mb)     dimensions
        Auxiliary wavefunctions        30.91 Mb     (    3289,  616)
        Each subspace H/S matrix        1.45 Mb     (     308,  308)
        Each <psi_i|beta_j> matrix      1.20 Mb     (     512,  154)
        Arrays for rho mixing           6.75 Mb     (   55296,    8)

     Check: negative/imaginary core charge=   -0.000001    0.000000

     Initial potential from superposition of free atoms

     starting charge  255.96421, renormalised to  256.00000
     Starting wfc are  256 randomized atomic wfcs
     Checking if some PAW data can be deallocated... 

     total cpu time spent up to now is        9.4 secs

     per-process dynamical memory:   114.9 Mb

     Self-consistent Calculation

     iteration #  1     ecut=    50.00 Ry     beta=0.70
     Davidson diagonalization with overlap
     ethr =  1.00E-02,  avg # of iterations =  3.0

     Threshold (ethr) on eigenvalues was too large:
     Diagonalizing with lowered threshold

     Davidson diagonalization with overlap
     ethr =  7.00E-04,  avg # of iterations =  1.0

     total cpu time spent up to now is       45.0 secs

     total energy              =   -2990.45691472 Ry
     Harris-Foulkes estimate   =   -2990.87684304 Ry
     estimated scf accuracy    <       1.77337594 Ry

     iteration #  2     ecut=    50.00 Ry     beta=0.70
     Davidson diagonalization with overlap
     ethr =  6.93E-04,  avg # of iterations =  1.0

     total cpu time spent up to now is       58.3 secs

     total energy              =   -2990.52359395 Ry
     Harris-Foulkes estimate   =   -2990.52748409 Ry
     estimated scf accuracy    <       0.07631972 Ry

     iteration #  3     ecut=    50.00 Ry     beta=0.70
     Davidson diagonalization with overlap
     ethr =  2.98E-05,  avg # of iterations = 10.0

     total cpu time spent up to now is       87.3 secs

     total energy              =   -2990.53051232 Ry
     Harris-Foulkes estimate   =   -2990.53138346 Ry
     estimated scf accuracy    <       0.00205571 Ry

     iteration #  4     ecut=    50.00 Ry     beta=0.70
     Davidson diagonalization with overlap
     ethr =  8.03E-07,  avg # of iterations =  8.5

     total cpu time spent up to now is      128.1 secs

     total energy              =   -2990.53019717 Ry
     Harris-Foulkes estimate   =   -2990.53291475 Ry
     estimated scf accuracy    <       0.00859301 Ry

     iteration #  5     ecut=    50.00 Ry     beta=0.70
     Davidson diagonalization with overlap
     ethr =  8.03E-07,  avg # of iterations =  5.0

     total cpu time spent up to now is      153.5 secs

     total energy              =   -2990.53147122 Ry
     Harris-Foulkes estimate   =   -2990.53160738 Ry
     estimated scf accuracy    <       0.00039562 Ry

     iteration #  6     ecut=    50.00 Ry     beta=0.70
     Davidson diagonalization with overlap
     ethr =  1.55E-07,  avg # of iterations =  2.0

     total cpu time spent up to now is      169.8 secs

     total energy              =   -2990.53153965 Ry
     Harris-Foulkes estimate   =   -2990.53155612 Ry
     estimated scf accuracy    <       0.00004653 Ry

     iteration #  7     ecut=    50.00 Ry     beta=0.70
     Davidson diagonalization with overlap
     ethr =  1.82E-08,  avg # of iterations =  3.0

     total cpu time spent up to now is      187.9 secs

     total energy              =   -2990.53154835 Ry
     Harris-Foulkes estimate   =   -2990.53155036 Ry
     estimated scf accuracy    <       0.00000465 Ry

     iteration #  8     ecut=    50.00 Ry     beta=0.70
     Davidson diagonalization with overlap
     ethr =  1.82E-09,  avg # of iterations =  3.0

     total cpu time spent up to now is      208.2 secs

     total energy              =   -2990.53154955 Ry
     Harris-Foulkes estimate   =   -2990.53154975 Ry
     estimated scf accuracy    <       0.00000045 Ry

     iteration #  9     ecut=    50.00 Ry     beta=0.70
     Davidson diagonalization with overlap
     ethr =  1.75E-10,  avg # of iterations =  3.0

     total cpu time spent up to now is      227.2 secs

     total energy              =   -2990.53154957 Ry
     Harris-Foulkes estimate   =   -2990.53154966 Ry
     estimated scf accuracy    <       0.00000012 Ry

     iteration # 10     ecut=    50.00 Ry     beta=0.70
     Davidson diagonalization with overlap
     ethr =  4.88E-11,  avg # of iterations =  3.0

     total cpu time spent up to now is      244.9 secs

     total energy              =   -2990.53154956 Ry
     Harris-Foulkes estimate   =   -2990.53154960 Ry
     estimated scf accuracy    <       0.00000007 Ry

     iteration # 11     ecut=    50.00 Ry     beta=0.70
     Davidson diagonalization with overlap
     ethr =  2.69E-11,  avg # of iterations =  2.0

     total cpu time spent up to now is      260.7 secs

     total energy              =   -2990.53154957 Ry
     Harris-Foulkes estimate   =   -2990.53154957 Ry
     estimated scf accuracy    <          2.5E-09 Ry

     iteration # 12     ecut=    50.00 Ry     beta=0.70
     Davidson diagonalization with overlap
     ethr =  9.73E-13,  avg # of iterations =  3.0

     total cpu time spent up to now is      282.9 secs

     total energy              =   -2990.53154957 Ry
     Harris-Foulkes estimate   =   -2990.53154957 Ry
     estimated scf accuracy    <          1.3E-09 Ry

     iteration # 13     ecut=    50.00 Ry     beta=0.70
     Davidson diagonalization with overlap
     ethr =  5.00E-13,  avg # of iterations =  2.0

     total cpu time spent up to now is      300.6 secs

     End of self-consistent calculation

          k = 0.2500 0.2500 0.2500 ( 52563 PWs)   bands (ev):

    -5.6251  -5.0992  -5.0956  -5.0941  -4.5997  -4.5959  -4.5947  -4.1635
    -4.0661  -4.0626  -4.0613  -3.6563  -3.6492  -3.6471  -3.6447  -3.6437
    -3.6407  -3.4566  -3.4555  -3.4520  -2.9622  -2.9589  -2.9557  -2.5914
    -2.5898  -2.5862  -2.4292  -2.4235  -2.4211  -2.4184  -2.4175  -2.4146
    -0.8865  -0.8832  -0.8783  -0.8762  -0.8740  -0.8724  -0.7832  -0.7815
    -0.7776  -0.6655  -0.6622  -0.6595  -0.5831  -0.5770  -0.5653   0.1271
     0.2033   0.2044   0.2103   0.2118   0.2159   0.2170   1.0790   1.0851
     1.0935   1.4159   1.4174   1.4216   2.0247   2.0264   2.0287   2.0295
     2.0317   2.0334   2.0852   2.0876   2.0913   2.6393   2.6401   2.6419
     2.7367   2.7389   2.7422   2.7440   2.7468   2.7483   2.7930   2.7964
     2.7991   3.1017   3.1049   3.1071   3.1084   3.1103   3.1134   3.3700
     3.3719   3.3726   3.3836   3.3851   3.3889   3.7308   3.7355   3.7385
     3.7554   3.7564   3.7599   3.8366   3.8387   3.8424   4.1084   4.1118
     4.1140   4.1143   4.1164   4.1237   4.1506   4.1527   4.1570   4.4141
     4.4689   4.4707   4.4719   4.7109   4.7135   4.7178   4.7734   4.7786
     4.7882   4.9338   4.9381   5.2387   5.2424   5.2478   5.7210   5.7261
     6.9342   6.9355   6.9380   7.3725   7.3751   7.3822   7.5984   7.8579
     7.8609   7.8658   7.9893   7.9925   7.9940   8.1485   8.1505   8.1544
     8.1672   8.1694   8.1711   8.3960   8.3985   8.4022   8.4027   8.4077
     8.4090   8.4477

          k =-0.2500-0.2500 0.2500 ( 52563 PWs)   bands (ev):

    -5.6250  -5.0985  -5.0972  -5.0934  -4.5988  -4.5978  -4.5937  -4.1631
    -4.0653  -4.0637  -4.0607  -3.6536  -3.6504  -3.6492  -3.6467  -3.6449
    -3.6381  -3.4577  -3.4544  -3.4529  -2.9615  -2.9581  -2.9549  -2.5922
    -2.5885  -2.5871  -2.4269  -2.4240  -2.4232  -2.4206  -2.4182  -2.4122
    -0.8847  -0.8827  -0.8799  -0.8778  -0.8736  -0.8707  -0.7834  -0.7798
    -0.7779  -0.6648  -0.6612  -0.6590  -0.5865  -0.5754  -0.5688   0.1256
     0.2048   0.2055   0.2097   0.2111   0.2171   0.2183   1.0772   1.0857
     1.0917   1.4150   1.4193   1.4207   2.0248   2.0265   2.0288   2.0293
     2.0317   2.0335   2.0852   2.0890   2.0914   2.6381   2.6401   2.6408
     2.7376   2.7391   2.7425   2.7442   2.7471   2.7498   2.7941   2.7969
     2.8002   3.1019   3.1049   3.1068   3.1080   3.1104   3.1133   3.3705
     3.3720   3.3733   3.3841   3.3867   3.3885   3.7300   3.7344   3.7380
     3.7543   3.7564   3.7572   3.8365   3.8402   3.8424   4.1047   4.1119
     4.1141   4.1146   4.1164   4.1203   4.1502   4.1544   4.1573   4.4124
     4.4698   4.4709   4.4735   4.7115   4.7152   4.7180   4.7704   4.7787
     4.7851   4.9342   4.9388   5.2393   5.2445   5.2484   5.7220   5.7270
     6.9344   6.9370   6.9384   7.3713   7.3784   7.3810   7.5990   7.8577
     7.8629   7.8660   7.9893   7.9907   7.9940   8.1483   8.1515   8.1541
     8.1675   8.1695   8.1716   8.3954   8.3969   8.4021   8.4029   8.4058
     8.4087   8.4486

          k =-0.2500 0.2500-0.2500 ( 52563 PWs)   bands (ev):

    -5.6251  -5.1004  -5.0968  -5.0917  -4.6008  -4.5972  -4.5923  -4.1637
    -4.0678  -4.0640  -4.0590  -3.6552  -3.6502  -3.6484  -3.6470  -3.6411
    -3.6386  -3.4562  -3.4550  -3.4521  -2.9641  -2.9596  -2.9550  -2.5907
    -2.5896  -2.5867  -2.4289  -2.4238  -2.4223  -2.4208  -2.4163  -2.4116
    -0.8875  -0.8824  -0.8793  -0.8780  -0.8745  -0.8697  -0.7828  -0.7813
    -0.7793  -0.6654  -0.6621  -0.6605  -0.5775  -0.5762  -0.5682   0.1282
     0.2023   0.2053   0.2102   0.2114   0.2137   0.2172   1.0811   1.0857
     1.0929   1.4167   1.4172   1.4209   2.0243   2.0271   2.0287   2.0291
     2.0318   2.0327   2.0867   2.0872   2.0900   2.6401   2.6405   2.6425
     2.7363   2.7383   2.7417   2.7437   2.7459   2.7478   2.7926   2.7946
     2.7998   3.1020   3.1037   3.1071   3.1087   3.1107   3.1138   3.3697
     3.3714   3.3719   3.3841   3.3844   3.3883   3.7318   3.7354   3.7398
     3.7561   3.7570   3.7612   3.8360   3.8387   3.8422   4.1114   4.1132
     4.1141   4.1153   4.1168   4.1222   4.1500   4.1529   4.1570   4.4148
     4.4682   4.4704   4.4710   4.7102   4.7134   4.7167   4.7778   4.7796
     4.7867   4.9342   4.9373   5.2381   5.2420   5.2465   5.7211   5.7247
     6.9343   6.9345   6.9372   7.3707   7.3762   7.3820   7.5979   7.8562
     7.8612   7.8655   7.9902   7.9930   7.9941   8.1460   8.1517   8.1547
     8.1678   8.1689   8.1704   8.3963   8.3999   8.4023   8.4045   8.4082
     8.4087   8.4467

          k = 0.2500-0.2500-0.2500 ( 52563 PWs)   bands (ev):

    -5.6250  -5.1011  -5.0958  -5.0923  -4.6013  -4.5962  -4.5926  -4.1627
    -4.0680  -4.0627  -4.0591  -3.6555  -3.6530  -3.6469  -3.6455  -3.6438
    -3.6388  -3.4576  -3.4544  -3.4534  -2.9623  -2.9576  -2.9532  -2.5918
    -2.5888  -2.5876  -2.4298  -2.4252  -2.4208  -2.4193  -2.4178  -2.4127
    -0.8876  -0.8822  -0.8781  -0.8768  -0.8742  -0.8697  -0.7827  -0.7797
    -0.7782  -0.6630  -0.6609  -0.6590  -0.5839  -0.5760  -0.5749   0.1245
     0.2043   0.2081   0.2101   0.2112   0.2163   0.2191   1.0778   1.0851
     1.0896   1.4157   1.4194   1.4199   2.0253   2.0262   2.0283   2.0298
     2.0313   2.0334   2.0873   2.0897   2.0903   2.6376   2.6396   2.6401
     2.7383   2.7392   2.7429   2.7446   2.7476   2.7491   2.7940   2.7984
     2.8013   3.1014   3.1045   3.1064   3.1080   3.1115   3.1132   3.3711
     3.3722   3.3734   3.3844   3.3876   3.3886   3.7291   3.7344   3.7377
     3.7525   3.7556   3.7566   3.8372   3.8400   3.8431   4.1056   4.1114
     4.1131   4.1144   4.1152   4.1170   4.1512   4.1545   4.1581   4.4108
     4.4711   4.4717   4.4738   4.7123   4.7154   4.7186   4.7716   4.7781
     4.7800   4.9354   4.9385   5.2408   5.2449   5.2492   5.7236   5.7270
     6.9351   6.9378   6.9382   7.3713   7.3773   7.3826   7.5994   7.8580
     7.8627   7.8673   7.9895   7.9902   7.9934   8.1477   8.1506   8.1554
     8.1685   8.1690   8.1720   8.3960   8.3967   8.4004   8.4027   8.4049
     8.4082   8.4490

     the Fermi energy is     6.3264 ev

!    total energy              =   -2990.53154957 Ry
     Harris-Foulkes estimate   =   -2990.53154957 Ry
     estimated scf accuracy    <          2.7E-10 Ry

     total all-electron energy =    -37124.667103 Ry

     The total energy is the sum of the following terms:

     one-electron contribution =     178.60675235 Ry
     hartree contribution      =      35.70133310 Ry
     xc contribution           =    -391.44199643 Ry
     ewald contribution        =    -534.00633278 Ry
     one-center paw contrib.   =   -2279.39130582 Ry
     smearing contrib. (-TS)   =       0.00000000 Ry

     convergence has been achieved in  13 iterations

     Forces acting on atoms (Ry/au):

     atom    1 type  1   force =    -0.01592963   -0.00001674   -0.00000059
     atom    2 type  1   force =     0.00002752    0.00000486    0.00000053
     atom    3 type  1   force =     0.01131915    0.01126484   -0.00060390
     atom    4 type  1   force =    -0.00002325   -0.00003904    0.00000090
     atom    5 type  1   force =     0.00038970    0.00000473    0.00000032
     atom    6 type  1   force =    -0.00002414   -0.00001711    0.00000075
     atom    7 type  1   force =    -0.00051428   -0.00003894    0.00000038
     atom    8 type  1   force =     0.00002973    0.00033517   -0.00000075
     atom    9 type  1   force =    -0.00007786   -0.00013227    0.00035530
     atom   10 type  1   force =     0.00000688   -0.00002686   -0.00003838
     atom   11 type  1   force =    -0.00007269   -0.00013498   -0.00035260
     atom   12 type  1   force =     0.00000660   -0.00002849    0.00003721
     atom   13 type  1   force =    -0.00023201   -0.00019453    0.00002381
     atom   14 type  1   force =    -0.00000643   -0.00003413    0.00007067
     atom   15 type  1   force =    -0.00023549   -0.00020367   -0.00003205
     atom   16 type  1   force =    -0.00000682   -0.00003253   -0.00007001
     atom   17 type  1   force =     0.00019432   -0.00010393    0.00027451
     atom   18 type  1   force =     0.00020113   -0.00010698   -0.00028065
     atom   19 type  1   force =    -0.00020133    0.00044147   -0.00032048
     atom   20 type  1   force =    -0.00020413    0.00044098    0.00031730
     atom   21 type  1   force =     0.00020804    0.00010276   -0.00028808
     atom   22 type  1   force =     0.00021387    0.00010663    0.00029380
     atom   23 type  1   force =    -0.00004680    0.00030226    0.00015952
     atom   24 type  1   force =    -0.00004208    0.00030197   -0.00016153
     atom   25 type  1   force =     0.00022982    0.00022326   -0.00011199
     atom   26 type  1   force =    -0.00008435   -0.00055532   -0.00026992
     atom   27 type  1   force =    -0.00010488   -0.00056346    0.00027000
     atom   28 type  1   force =     0.00023333    0.00023027    0.00011157
     atom   29 type  1   force =    -0.00004243   -0.00016102   -0.00000965
     atom   30 type  1   force =     0.00006619    0.00010047   -0.00002324
     atom   31 type  1   force =     0.00006640    0.00010052    0.00002282
     atom   32 type  1   force =    -0.00004111   -0.00016161    0.00000962
     atom   33 type  1   force =    -0.00006019   -0.00016804   -0.00000752
     atom   34 type  1   force =     0.00026152    0.00003429   -0.00002560
     atom   35 type  1   force =     0.00001949    0.00001951   -0.00001905
     atom   36 type  1   force =    -0.00026000    0.00001043    0.00000064
     atom   37 type  1   force =     0.00000862    0.00003981   -0.00003618
     atom   38 type  1   force =    -0.00443742   -0.00433804   -0.00335727
     atom   39 type  1   force =    -0.00005182   -0.00000113   -0.00000273
     atom   40 type  1   force =     0.00394420    0.00268738    0.00264196
     atom   41 type  1   force =    -0.00001304   -0.00003930   -0.00003745
     atom   42 type  1   force =     0.00399668   -0.00267008   -0.00269540
     atom   43 type  1   force =     0.00006223    0.00004421   -0.00003500
     atom   44 type  1   force =    -0.00099331   -0.00091748   -0.00000587
     atom   45 type  1   force =     0.00006355    0.00001031   -0.00002537
     atom   46 type  1   force =    -0.00022094   -0.00004937   -0.00003760
     atom   47 type  1   force =    -0.00002183   -0.00019171   -0.00003287
     atom   48 type  1   force =     0.00033184    0.00005166   -0.00002992
     atom   49 type  1   force =    -0.00093692   -0.00096944    0.00009595
     atom   50 type  1   force =     0.00006287    0.00004125    0.00003902
     atom   51 type  1   force =     0.00388141   -0.00244650    0.00247291
     atom   52 type  1   force =    -0.00001385   -0.00003896    0.00003840
     atom   53 type  1   force =     0.00033198    0.00004817    0.00002539
     atom   54 type  1   force =    -0.00002040   -0.00019134    0.00003119
     atom   55 type  1   force =    -0.00021949   -0.00005201    0.00003610
     atom   56 type  1   force =     0.00006535    0.00000818    0.00002661
     atom   57 type  1   force =    -0.00025886    0.00001324    0.00000034
     atom   58 type  1   force =     0.00002114    0.00002250    0.00001728
     atom   59 type  1   force =     0.00025828    0.00003313    0.00002586
     atom   60 type  1   force =    -0.00006037   -0.00017014    0.00000636
     atom   61 type  1   force =     0.00382682    0.00246245   -0.00241963
     atom   62 type  1   force =    -0.00004869    0.00000161   -0.00000029
     atom   63 type  1   force =    -0.00483151   -0.00473514    0.00389108
     atom   64 type  1   force =     0.00000970    0.00004193    0.00003347

     Total force =     0.027235     Total SCF correction =     0.000031

     Writing output data file pwscf.save
 
     init_run     :      8.97s CPU      9.23s WALL (       1 calls)
     electrons    :    287.12s CPU    291.52s WALL (       1 calls)
     forces       :      4.15s CPU      4.24s WALL (       1 calls)

     Called by init_run:
     wfcinit      :      8.40s CPU      8.50s WALL (       1 calls)
     potinit      :      0.23s CPU      0.24s WALL (       1 calls)

     Called by electrons:
     c_bands      :    258.70s CPU    262.62s WALL (      14 calls)
     sum_band     :     24.14s CPU     24.33s WALL (      14 calls)
     v_of_rho     :      0.72s CPU      0.72s WALL (      14 calls)
     newd         :      1.06s CPU      1.09s WALL (      14 calls)
     PAW_pot      :      2.32s CPU      2.33s WALL (      14 calls)
     mix_rho      :      0.35s CPU      0.36s WALL (      14 calls)

     Called by c_bands:
     init_us_2    :      2.63s CPU      2.65s WALL (     120 calls)
     cegterg      :    253.69s CPU    257.44s WALL (      56 calls)

     Called by sum_band:
     sum_band:bec :      0.05s CPU      0.05s WALL (      56 calls)
     addusdens    :      1.06s CPU      1.18s WALL (      14 calls)

     Called by *egterg:
     h_psi        :    117.99s CPU    118.38s WALL (     258 calls)
     s_psi        :     30.29s CPU     30.35s WALL (     258 calls)
     g_psi        :      1.06s CPU      1.06s WALL (     198 calls)
     cdiaghg      :     40.59s CPU     40.66s WALL (     250 calls)

     Called by h_psi:
     add_vuspsi   :     30.29s CPU     30.36s WALL (     258 calls)

     General routines
     calbec       :     46.79s CPU     46.89s WALL (     330 calls)
     fft          :      0.61s CPU      0.62s WALL (     195 calls)
     fftw         :     58.47s CPU     58.77s WALL (   57000 calls)
     davcio       :      0.00s CPU      0.01s WALL (       4 calls)
 
     Parallel routines
     fft_scatter  :     15.08s CPU     14.85s WALL (   57195 calls)
 
     PWSCF        :  5m 0.53s CPU     6m46.76s WALL

 
   This run was terminated on:  13:38:43   3Feb2016            

=------------------------------------------------------------------------------=
   JOB DONE.
=------------------------------------------------------------------------------=
