<?xml version="1.0" encoding="ISO-8859-1"?>
<modeling>
 <generator>
  <i name="program" type="string">vasp </i>
  <i name="version" type="string">5.4.1  </i>
  <i name="subversion" type="string">05Feb16 (build Mar 26 2016 11:58:25) complex                          parallel </i>
  <i name="platform" type="string">IFC91_ompi </i>
  <i name="date" type="string">2017 03 12 </i>
  <i name="time" type="string">12:13:57 </i>
 </generator>
 <incar>
  <i type="string" name="PREC">accurate</i>
  <i type="int" name="IALGO">    38</i>
  <i type="logical" name="ADDGRID"> T  </i>
  <i type="int" name="NELMIN">     5</i>
  <i type="int" name="IBRION">    -1</i>
  <i name="EDIFF">      0.00000001</i>
  <i name="ENCUT">    300.00000000</i>
  <i type="logical" name="LREAL"> F  </i>
  <i type="int" name="ISMEAR">     0</i>
  <i name="SIGMA">      0.05000000</i>
  <i type="logical" name="LWAVE"> F  </i>
  <i type="logical" name="LCHARG"> F  </i>
  <v type="int" name="KPOINT_BSE">    -1     0     0     0</v>
 </incar>
 <kpoints>
  <generation param="Monkhorst-Pack">
   <v type="int" name="divisions">       2        2        2 </v>
   <v name="usershift">      0.00000000       0.00000000       0.00000000 </v>
   <v name="genvec1">      0.50000000       0.00000000       0.00000000 </v>
   <v name="genvec2">      0.00000000       0.50000000       0.00000000 </v>
   <v name="genvec3">      0.00000000       0.00000000       0.50000000 </v>
   <v name="shift">      0.50000000       0.50000000       0.50000000 </v>
  </generation>
  <varray name="kpointlist" >
   <v>       0.25000000       0.25000000       0.25000000 </v>
   <v>      -0.25000000       0.25000000       0.25000000 </v>
  </varray>
  <varray name="weights" >
   <v>       0.50000000 </v>
   <v>       0.50000000 </v>
  </varray>
 </kpoints>
 <parameters>
  <separator name="general" >
   <i type="string" name="SYSTEM">unknown system</i>
   <i type="logical" name="LCOMPAT"> F  </i>
  </separator>
  <separator name="electronic" >
   <i type="string" name="PREC">accura</i>
   <i name="ENMAX">    300.00000000</i>
   <i name="ENAUG">    322.06900000</i>
   <i name="EDIFF">      0.00000001</i>
   <i type="int" name="IALGO">    38</i>
   <i type="int" name="IWAVPR">    10</i>
   <i type="int" name="NBANDS">   164</i>
   <i name="NELECT">    256.00000000</i>
   <i type="int" name="TURBO">     0</i>
   <i type="int" name="IRESTART">     0</i>
   <i type="int" name="NREBOOT">     0</i>
   <i type="int" name="NMIN">     0</i>
   <i name="EREF">      0.00000000</i>
   <separator name="electronic smearing" >
    <i type="int" name="ISMEAR">     0</i>
    <i name="SIGMA">      0.05000000</i>
    <i name="KSPACING">      0.50000000</i>
    <i type="logical" name="KGAMMA"> T  </i>
   </separator>
   <separator name="electronic projectors" >
    <i type="logical" name="LREAL"> F  </i>
    <v name="ROPT">      0.00000000</v>
    <i type="int" name="LMAXPAW">  -100</i>
    <i type="int" name="LMAXMIX">     2</i>
    <i type="logical" name="NLSPLINE"> F  </i>
   </separator>
   <separator name="electronic startup" >
    <i type="int" name="ISTART">     0</i>
    <i type="int" name="ICHARG">     2</i>
    <i type="int" name="INIWAV">     1</i>
   </separator>
   <separator name="electronic spin" >
    <i type="int" name="ISPIN">     1</i>
    <i type="logical" name="LNONCOLLINEAR"> F  </i>
    <v name="MAGMOM">      1.00000000      1.00000000      1.00000000      1.00000000      1.00000000      1.00000000      1.00000000      1.00000000      1.00000000      1.00000000      1.00000000      1.00000000      1.00000000      1.00000000      1.00000000      1.00000000      1.00000000      1.00000000      1.00000000      1.00000000
      1.00000000      1.00000000      1.00000000      1.00000000      1.00000000      1.00000000      1.00000000      1.00000000      1.00000000      1.00000000      1.00000000      1.00000000      1.00000000      1.00000000      1.00000000      1.00000000      1.00000000      1.00000000      1.00000000      1.00000000
      1.00000000      1.00000000      1.00000000      1.00000000      1.00000000      1.00000000      1.00000000      1.00000000      1.00000000      1.00000000      1.00000000      1.00000000      1.00000000      1.00000000      1.00000000      1.00000000      1.00000000      1.00000000      1.00000000      1.00000000
      1.00000000      1.00000000      1.00000000      1.00000000</v>
    <i name="NUPDOWN">     -1.00000000</i>
    <i type="logical" name="LSORBIT"> F  </i>
    <v name="SAXIS">      0.00000000      0.00000000      1.00000000</v>
    <i type="logical" name="LSPIRAL"> F  </i>
    <v name="QSPIRAL">      0.00000000      0.00000000      0.00000000</v>
    <i type="logical" name="LZEROZ"> F  </i>
   </separator>
   <separator name="electronic exchange-correlation" >
    <i type="logical" name="LASPH"> F  </i>
    <i type="logical" name="LMETAGGA"> F  </i>
   </separator>
   <separator name="electronic convergence" >
    <i type="int" name="NELM">    60</i>
    <i type="int" name="NELMDL">    -5</i>
    <i type="int" name="NELMIN">     5</i>
    <i name="ENINI">    300.00000000</i>
    <separator name="electronic convergence detail" >
     <i type="logical" name="LDIAG"> T  </i>
     <i type="logical" name="LSUBROT"> F  </i>
     <i name="WEIMIN">      0.00000000</i>
     <i name="EBREAK">      0.00000000</i>
     <i name="DEPER">      0.30000000</i>
     <i type="int" name="NRMM">     4</i>
     <i name="TIME">      0.40000000</i>
    </separator>
   </separator>
   <separator name="electronic mixer" >
    <i name="AMIX">      0.40000000</i>
    <i name="BMIX">      1.00000000</i>
    <i name="AMIN">      0.10000000</i>
    <i name="AMIX_MAG">      1.60000000</i>
    <i name="BMIX_MAG">      1.00000000</i>
    <separator name="electronic mixer details" >
     <i type="int" name="IMIX">     4</i>
     <i type="logical" name="MIXFIRST"> F  </i>
     <i type="int" name="MAXMIX">   -45</i>
     <i name="WC">    100.00000000</i>
     <i type="int" name="INIMIX">     1</i>
     <i type="int" name="MIXPRE">     1</i>
     <i type="int" name="MREMOVE">     5</i>
    </separator>
   </separator>
   <separator name="electronic dipolcorrection" >
    <i type="logical" name="LDIPOL"> F  </i>
    <i type="logical" name="LMONO"> F  </i>
    <i type="int" name="IDIPOL">     0</i>
    <i name="EPSILON">      1.00000000</i>
    <v name="DIPOL">   -100.00000000   -100.00000000   -100.00000000</v>
    <i name="EFIELD">      0.00000000</i>
   </separator>
  </separator>
  <separator name="grids" >
   <i type="int" name="NGX">    64</i>
   <i type="int" name="NGY">    64</i>
   <i type="int" name="NGZ">    64</i>
   <i type="int" name="NGXF">   128</i>
   <i type="int" name="NGYF">   128</i>
   <i type="int" name="NGZF">   128</i>
   <i type="logical" name="ADDGRID"> T  </i>
  </separator>
  <separator name="ionic" >
   <i type="int" name="NSW">     0</i>
   <i type="int" name="IBRION">    -1</i>
   <i type="int" name="ISIF">     2</i>
   <i name="PSTRESS">      0.00000000</i>
   <i name="EDIFFG">      0.00000010</i>
   <i type="int" name="NFREE">     0</i>
   <i name="POTIM">      0.50000000</i>
   <i name="SMASS">     -3.00000000</i>
   <i name="SCALEE">      1.00000000</i>
  </separator>
  <separator name="ionic md" >
   <i name="TEBEG">      0.00010000</i>
   <i name="TEEND">      0.00010000</i>
   <i type="int" name="NBLOCK">     1</i>
   <i type="int" name="KBLOCK">     1</i>
   <i type="int" name="NPACO">   256</i>
   <i name="APACO">     16.00000000</i>
  </separator>
  <separator name="symmetry" >
   <i type="int" name="ISYM">     2</i>
   <i name="SYMPREC">      0.00001000</i>
  </separator>
  <separator name="dos" >
   <i type="logical" name="LORBIT"> F  </i>
   <v name="RWIGS">     -1.00000000</v>
   <i type="int" name="NEDOS">   301</i>
   <i name="EMIN">     10.00000000</i>
   <i name="EMAX">    -10.00000000</i>
   <i name="EFERMI">      0.00000000</i>
  </separator>
  <separator name="writing" >
   <i type="int" name="NWRITE">     2</i>
   <i type="logical" name="LWAVE"> F  </i>
   <i type="logical" name="LCHARG"> F  </i>
   <i type="logical" name="LPARD"> F  </i>
   <i type="logical" name="LVTOT"> F  </i>
   <i type="logical" name="LVHAR"> F  </i>
   <i type="logical" name="LELF"> F  </i>
   <i type="logical" name="LOPTICS"> F  </i>
   <v name="STM">      0.00000000      0.00000000      0.00000000      0.00000000      0.00000000      0.00000000      0.00000000</v>
  </separator>
  <separator name="performance" >
   <i type="int" name="NPAR">     4</i>
   <i type="int" name="NSIM">     4</i>
   <i type="int" name="NBLK">    -1</i>
   <i type="logical" name="LPLANE"> T  </i>
   <i type="logical" name="LSCALAPACK"> T  </i>
   <i type="logical" name="LSCAAWARE"> F  </i>
   <i type="logical" name="LSCALU"> F  </i>
   <i type="logical" name="LASYNC"> F  </i>
   <i type="logical" name="LORBITALREAL"> F  </i>
  </separator>
  <separator name="miscellaneous" >
   <i type="int" name="IDIOT">     3</i>
   <i type="logical" name="LMUSIC"> F  </i>
   <v name="POMASS">     28.08500000</v>
   <v name="DARWINR">      0.00000000</v>
   <v name="DARWINV">      1.00000000</v>
   <i type="logical" name="LCORR"> T  </i>
  </separator>
  <i type="logical" name="GGA_COMPAT"> T  </i>
  <i type="logical" name="LBERRY"> F  </i>
  <i type="int" name="ICORELEVEL">     0</i>
  <i type="logical" name="LDAU"> F  </i>
  <i type="int" name="I_CONSTRAINED_M">     0</i>
  <separator name="electronic exchange-correlation" >
   <i type="string" name="GGA">--</i>
   <i type="int" name="VOSKOWN">     0</i>
   <i type="logical" name="LHFCALC"> F  </i>
   <i type="string" name="PRECFOCK"></i>
   <i type="logical" name="LSYMGRAD"> F  </i>
   <i type="logical" name="LHFONE"> F  </i>
   <i type="logical" name="LRHFCALC"> F  </i>
   <i type="logical" name="LTHOMAS"> F  </i>
   <i type="logical" name="LMODELHF"> F  </i>
   <i name="ENCUT4O">     -1.00000000</i>
   <i type="int" name="EXXOEP">     0</i>
   <i type="int" name="FOURORBIT">     0</i>
   <i name="AEXX">      0.00000000</i>
   <i name="HFALPHA">      0.00000000</i>
   <i name="MCALPHA">      0.00000000</i>
   <i name="ALDAX">      1.00000000</i>
   <i name="AGGAX">      1.00000000</i>
   <i name="ALDAC">      1.00000000</i>
   <i name="AGGAC">      1.00000000</i>
   <i type="int" name="NKREDX">     1</i>
   <i type="int" name="NKREDY">     1</i>
   <i type="int" name="NKREDZ">     1</i>
   <i type="logical" name="SHIFTRED"> F  </i>
   <i type="logical" name="ODDONLY"> F  </i>
   <i type="logical" name="EVENONLY"> F  </i>
   <i type="int" name="LMAXFOCK">     0</i>
   <i type="int" name="NMAXFOCKAE">     0</i>
   <i type="logical" name="LFOCKAEDFT"> F  </i>
   <i name="HFSCREEN">      0.00000000</i>
   <i name="HFSCREENC">      0.00000000</i>
   <i type="int" name="NBANDSGWLOW">     0</i>
  </separator>
  <separator name="vdW DFT" >
   <i type="logical" name="LUSE_VDW"> F  </i>
   <i name="Zab_VDW">     -0.84910000</i>
   <i name="PARAM1">      0.12340000</i>
   <i name="PARAM2">      1.00000000</i>
   <i name="PARAM3">      0.00000000</i>
  </separator>
  <separator name="model GW" >
   <i type="int" name="MODEL_GW">     0</i>
   <i name="MODEL_EPS0">     12.24990743</i>
   <i name="MODEL_ALPHA">      1.00000000</i>
  </separator>
  <separator name="linear response parameters" >
   <i type="logical" name="LEPSILON"> F  </i>
   <i type="logical" name="LRPA"> F  </i>
   <i type="logical" name="LNABLA"> F  </i>
   <i type="logical" name="LVEL"> F  </i>
   <i type="int" name="KINTER">     0</i>
   <i name="CSHIFT">      0.10000000</i>
   <i name="OMEGAMAX">     -1.00000000</i>
   <i name="DEG_THRESHOLD">      0.00200000</i>
  </separator>
  <separator name="orbital magnetization" >
   <i type="logical" name="NUCIND"> F  </i>
   <v name="MAGPOS">      0.00000000      0.00000000      0.00000000</v>
   <i type="logical" name="LNICSALL"> T  </i>
   <i type="logical" name="ORBITALMAG"> F  </i>
   <i type="logical" name="LMAGBLOCH"> F  </i>
   <i type="logical" name="LCHIMAG"> F  </i>
   <i type="logical" name="LGAUGE"> T  </i>
   <i type="int" name="MAGATOM">     0</i>
   <v name="MAGDIPOL">      0.00000000      0.00000000      0.00000000</v>
   <v name="AVECCONST">      0.00000000      0.00000000      0.00000000</v>
  </separator>
  <separator name="response functions" >
   <i type="logical" name="LADDER"> F  </i>
   <i type="logical" name="LFXC"> F  </i>
   <i type="logical" name="LHARTREE"> T  </i>
   <i type="int" name="IBSE">     0</i>
   <v type="int" name="KPOINT">    -1     0     0     0</v>
   <i type="logical" name="LTCTE"> F  </i>
   <i type="logical" name="LTETE"> F  </i>
   <i type="logical" name="LTRIPLET"> F  </i>
   <i type="logical" name="LFXCEPS"> F  </i>
   <i type="logical" name="LFXHEG"> F  </i>
   <i type="int" name="NATURALO">     0</i>
   <i type="logical" name="L2ORDER"> F  </i>
   <i type="logical" name="LUSEW"> F  </i>
   <i name="ENCUTGW">     -2.00000000</i>
   <i name="ENCUTGWSOFT">     -2.00000000</i>
   <i name="ENCUTLF">     -1.00000000</i>
   <i type="int" name="LMAXMP2">    -1</i>
   <i name="SCISSOR">      0.00000000</i>
   <i type="int" name="NOMEGA">     0</i>
   <i type="int" name="NOMEGAR">     0</i>
   <i type="int" name="NBANDSGW">    -1</i>
   <i type="int" name="NBANDSO">    -1</i>
   <i type="int" name="NBANDSV">    -1</i>
   <i type="int" name="NELM">     1</i>
   <i type="int" name="NELMHF">     1</i>
   <i type="int" name="DIM">     3</i>
   <i type="int" name="ANTIRES">     0</i>
   <i name="OMEGAMAX">    -30.00000000</i>
   <i name="OMEGAMIN">    -30.00000000</i>
   <i name="OMEGATL">   -200.00000000</i>
   <i type="int" name="OMEGAGRID">     0</i>
   <i name="CSHIFT">     -0.10000000</i>
   <i type="logical" name="SELFENERGY"> F  </i>
   <i type="logical" name="LSPECTRAL"> F  </i>
   <i type="logical" name="LSPECTRALGW"> F  </i>
   <i type="logical" name="LSINGLES"> F  </i>
   <i type="logical" name="LFERMIGW"> F  </i>
   <i type="logical" name="ODDONLYGW"> F  </i>
   <i type="logical" name="EVENONLYGW"> F  </i>
   <i type="int" name="NKREDLFX">     1</i>
   <i type="int" name="NKREDLFY">     1</i>
   <i type="int" name="NKREDLFZ">     1</i>
   <i type="int" name="MAXMEM">  1800</i>
   <i type="int" name="TELESCOPE">     0</i>
   <i type="int" name="TAUPAR">     1</i>
   <i type="int" name="OMEGAPAR">    -1</i>
   <i name="LAMBDA">      1.00000000</i>
  </separator>
  <separator name="External order field" >
   <i name="OFIELD_KAPPA">      0.00000000</i>
   <v name="OFIELD_K">      0.00000000      0.00000000      0.00000000</v>
   <i name="OFIELD_Q6_NEAR">      0.00000000</i>
   <i name="OFIELD_Q6_FAR">      0.00000000</i>
   <i name="OFIELD_A">      0.00000000</i>
  </separator>
 </parameters>
 <atominfo>
  <atoms>      64 </atoms>
  <types>       1 </types>
  <array name="atoms" >
   <dimension dim="1">ion</dimension>
   <field type="string">element</field>
   <field type="int">atomtype</field>
   <set>
    <rc><c>Si</c><c>   1</c></rc>
    <rc><c>Si</c><c>   1</c></rc>
    <rc><c>Si</c><c>   1</c></rc>
    <rc><c>Si</c><c>   1</c></rc>
    <rc><c>Si</c><c>   1</c></rc>
    <rc><c>Si</c><c>   1</c></rc>
    <rc><c>Si</c><c>   1</c></rc>
    <rc><c>Si</c><c>   1</c></rc>
    <rc><c>Si</c><c>   1</c></rc>
    <rc><c>Si</c><c>   1</c></rc>
    <rc><c>Si</c><c>   1</c></rc>
    <rc><c>Si</c><c>   1</c></rc>
    <rc><c>Si</c><c>   1</c></rc>
    <rc><c>Si</c><c>   1</c></rc>
    <rc><c>Si</c><c>   1</c></rc>
    <rc><c>Si</c><c>   1</c></rc>
    <rc><c>Si</c><c>   1</c></rc>
    <rc><c>Si</c><c>   1</c></rc>
    <rc><c>Si</c><c>   1</c></rc>
    <rc><c>Si</c><c>   1</c></rc>
    <rc><c>Si</c><c>   1</c></rc>
    <rc><c>Si</c><c>   1</c></rc>
    <rc><c>Si</c><c>   1</c></rc>
    <rc><c>Si</c><c>   1</c></rc>
    <rc><c>Si</c><c>   1</c></rc>
    <rc><c>Si</c><c>   1</c></rc>
    <rc><c>Si</c><c>   1</c></rc>
    <rc><c>Si</c><c>   1</c></rc>
    <rc><c>Si</c><c>   1</c></rc>
    <rc><c>Si</c><c>   1</c></rc>
    <rc><c>Si</c><c>   1</c></rc>
    <rc><c>Si</c><c>   1</c></rc>
    <rc><c>Si</c><c>   1</c></rc>
    <rc><c>Si</c><c>   1</c></rc>
    <rc><c>Si</c><c>   1</c></rc>
    <rc><c>Si</c><c>   1</c></rc>
    <rc><c>Si</c><c>   1</c></rc>
    <rc><c>Si</c><c>   1</c></rc>
    <rc><c>Si</c><c>   1</c></rc>
    <rc><c>Si</c><c>   1</c></rc>
    <rc><c>Si</c><c>   1</c></rc>
    <rc><c>Si</c><c>   1</c></rc>
    <rc><c>Si</c><c>   1</c></rc>
    <rc><c>Si</c><c>   1</c></rc>
    <rc><c>Si</c><c>   1</c></rc>
    <rc><c>Si</c><c>   1</c></rc>
    <rc><c>Si</c><c>   1</c></rc>
    <rc><c>Si</c><c>   1</c></rc>
    <rc><c>Si</c><c>   1</c></rc>
    <rc><c>Si</c><c>   1</c></rc>
    <rc><c>Si</c><c>   1</c></rc>
    <rc><c>Si</c><c>   1</c></rc>
    <rc><c>Si</c><c>   1</c></rc>
    <rc><c>Si</c><c>   1</c></rc>
    <rc><c>Si</c><c>   1</c></rc>
    <rc><c>Si</c><c>   1</c></rc>
    <rc><c>Si</c><c>   1</c></rc>
    <rc><c>Si</c><c>   1</c></rc>
    <rc><c>Si</c><c>   1</c></rc>
    <rc><c>Si</c><c>   1</c></rc>
    <rc><c>Si</c><c>   1</c></rc>
    <rc><c>Si</c><c>   1</c></rc>
    <rc><c>Si</c><c>   1</c></rc>
    <rc><c>Si</c><c>   1</c></rc>
   </set>
  </array>
  <array name="atomtypes" >
   <dimension dim="1">type</dimension>
   <field type="int">atomspertype</field>
   <field type="string">element</field>
   <field>mass</field>
   <field>valence</field>
   <field type="string">pseudopotential</field>
   <set>
    <rc><c>  64</c><c>Si</c><c>     28.08500000</c><c>      4.00000000</c><c>  PAW_PBE Si 05Jan2001                  </c></rc>
   </set>
  </array>
 </atominfo>
 <structure name="initialpos" >
  <crystal>
   <varray name="basis" >
    <v>      10.93252578       0.00000000       0.00000000 </v>
    <v>       0.00000000      10.93252578       0.00000000 </v>
    <v>       0.00000000       0.00000000      10.93252578 </v>
   </varray>
   <i name="volume">   1306.65679237 </i>
   <varray name="rec_basis" >
    <v>       0.09147017       0.00000000       0.00000000 </v>
    <v>       0.00000000       0.09147017       0.00000000 </v>
    <v>       0.00000000       0.00000000       0.09147017 </v>
   </varray>
  </crystal>
  <varray name="positions" >
   <v>       0.44024411       0.43750000       0.43750000 </v>
   <v>       0.93750000       0.43750000       0.43750000 </v>
   <v>       0.43750000       0.93750000       0.43750000 </v>
   <v>       0.93750000       0.93750000       0.43750000 </v>
   <v>       0.43750000       0.43750000       0.93750000 </v>
   <v>       0.93750000       0.43750000       0.93750000 </v>
   <v>       0.43750000       0.93750000       0.93750000 </v>
   <v>       0.93750000       0.93750000       0.93750000 </v>
   <v>       0.43750000       0.18750000       0.18750000 </v>
   <v>       0.93750000       0.18750000       0.18750000 </v>
   <v>       0.43750000       0.68750000       0.18750000 </v>
   <v>       0.93750000       0.68750000       0.18750000 </v>
   <v>       0.43750000       0.18750000       0.68750000 </v>
   <v>       0.93750000       0.18750000       0.68750000 </v>
   <v>       0.43750000       0.68750000       0.68750000 </v>
   <v>       0.93750000       0.68750000       0.68750000 </v>
   <v>       0.18750000       0.43750000       0.18750000 </v>
   <v>       0.68750000       0.43750000       0.18750000 </v>
   <v>       0.18475589       0.93750000       0.18750000 </v>
   <v>       0.68750000       0.93750000       0.18750000 </v>
   <v>       0.18750000       0.43750000       0.68750000 </v>
   <v>       0.68750000       0.43750000       0.68750000 </v>
   <v>       0.18750000       0.93750000       0.68750000 </v>
   <v>       0.68750000       0.93750000       0.68750000 </v>
   <v>       0.18750000       0.18750000       0.43750000 </v>
   <v>       0.68750000       0.18750000       0.43750000 </v>
   <v>       0.18750000       0.68750000       0.43750000 </v>
   <v>       0.68750000       0.68750000       0.43750000 </v>
   <v>       0.18750000       0.18750000       0.93750000 </v>
   <v>       0.68750000       0.18750000       0.93750000 </v>
   <v>       0.18750000       0.68750000       0.93750000 </v>
   <v>       0.68750000       0.68750000       0.93750000 </v>
   <v>       0.06250000       0.06250000       0.06250000 </v>
   <v>       0.56250000       0.06250000       0.06250000 </v>
   <v>       0.06250000       0.56250000       0.06250000 </v>
   <v>       0.56250000       0.56250000       0.06250000 </v>
   <v>       0.06250000       0.06250000       0.56250000 </v>
   <v>       0.56250000       0.06250000       0.56250000 </v>
   <v>       0.06250000       0.56250000       0.56250000 </v>
   <v>       0.56250000       0.56250000       0.56250000 </v>
   <v>       0.06250000       0.31250000       0.31250000 </v>
   <v>       0.56250000       0.31250000       0.31250000 </v>
   <v>       0.06250000       0.81250000       0.31250000 </v>
   <v>       0.56250000       0.81250000       0.31250000 </v>
   <v>       0.06250000       0.31250000       0.81250000 </v>
   <v>       0.56250000       0.31250000       0.81250000 </v>
   <v>       0.06250000       0.81250000       0.81250000 </v>
   <v>       0.56250000       0.81250000       0.81250000 </v>
   <v>       0.31250000       0.06250000       0.31250000 </v>
   <v>       0.81250000       0.06250000       0.31250000 </v>
   <v>       0.31250000       0.56250000       0.31250000 </v>
   <v>       0.81250000       0.56250000       0.31250000 </v>
   <v>       0.31250000       0.06250000       0.81250000 </v>
   <v>       0.81250000       0.06250000       0.81250000 </v>
   <v>       0.31250000       0.56250000       0.81250000 </v>
   <v>       0.81250000       0.56250000       0.81250000 </v>
   <v>       0.31250000       0.31250000       0.06250000 </v>
   <v>       0.81250000       0.31250000       0.06250000 </v>
   <v>       0.31250000       0.81250000       0.06250000 </v>
   <v>       0.81250000       0.81250000       0.06250000 </v>
   <v>       0.31250000       0.31250000       0.56250000 </v>
   <v>       0.81250000       0.31250000       0.56250000 </v>
   <v>       0.31250000       0.81250000       0.56250000 </v>
   <v>       0.81250000       0.81250000       0.56250000 </v>
  </varray>
 </structure>
 <calculation>
  <scstep>
   <time name="dav">    2.26    2.27</time>
   <time name="total">    2.45    2.48</time>
   <energy>
    <i name="alphaZ">    105.52440745 </i>
    <i name="ewald">  -7265.47113643 </i>
    <i name="hartreedc">   -361.71250965 </i>
    <i name="XCdc">   -597.75714164 </i>
    <i name="pawpsdc">   5639.92317535 </i>
    <i name="pawaedc">  -4513.95313856 </i>
    <i name="eentropy">     -0.00034219 </i>
    <i name="bandstr">    856.98265224 </i>
    <i name="atom">   6596.14994790 </i>
    <i name="e_fr_energy">    459.68591448 </i>
    <i name="e_wo_entrp">    459.68625668 </i>
    <i name="e_0_energy">    459.68608558 </i>
   </energy>
  </scstep>
  <scstep>
   <time name="dav">    2.58    2.58</time>
   <time name="total">    2.58    2.58</time>
   <energy>
    <i name="e_fr_energy">   -298.65870351 </i>
    <i name="e_wo_entrp">   -298.65870351 </i>
    <i name="e_0_energy">   -298.65870351 </i>
   </energy>
  </scstep>
  <scstep>
   <time name="dav">    2.63    2.63</time>
   <time name="total">    2.63    2.64</time>
   <energy>
    <i name="e_fr_energy">   -350.96816638 </i>
    <i name="e_wo_entrp">   -350.96816638 </i>
    <i name="e_0_energy">   -350.96816638 </i>
   </energy>
  </scstep>
  <scstep>
   <time name="dav">    2.63    2.64</time>
   <time name="total">    2.64    2.64</time>
   <energy>
    <i name="e_fr_energy">   -352.27339765 </i>
    <i name="e_wo_entrp">   -352.27339765 </i>
    <i name="e_0_energy">   -352.27339765 </i>
   </energy>
  </scstep>
  <scstep>
   <time name="dav">    2.58    2.59</time>
   <time name="total">    2.79    2.80</time>
   <energy>
    <i name="e_fr_energy">   -352.31299648 </i>
    <i name="e_wo_entrp">   -352.31299648 </i>
    <i name="e_0_energy">   -352.31299648 </i>
   </energy>
  </scstep>
  <scstep>
   <time name="dav">    2.53    2.53</time>
   <time name="total">    2.94    2.94</time>
   <energy>
    <i name="e_fr_energy">   -348.58484380 </i>
    <i name="e_wo_entrp">   -348.58484380 </i>
    <i name="e_0_energy">   -348.58484380 </i>
   </energy>
  </scstep>
  <scstep>
   <time name="dav">    2.49    2.49</time>
   <time name="total">    2.89    2.90</time>
   <energy>
    <i name="e_fr_energy">   -346.87195077 </i>
    <i name="e_wo_entrp">   -346.87195077 </i>
    <i name="e_0_energy">   -346.87195077 </i>
   </energy>
  </scstep>
  <scstep>
   <time name="dav">    2.57    2.57</time>
   <time name="total">    2.97    3.03</time>
   <energy>
    <i name="e_fr_energy">   -346.89817244 </i>
    <i name="e_wo_entrp">   -346.89817244 </i>
    <i name="e_0_energy">   -346.89817244 </i>
   </energy>
  </scstep>
  <scstep>
   <time name="dav">    2.62    2.62</time>
   <time name="total">    3.02    3.32</time>
   <energy>
    <i name="e_fr_energy">   -346.90482479 </i>
    <i name="e_wo_entrp">   -346.90482479 </i>
    <i name="e_0_energy">   -346.90482479 </i>
   </energy>
  </scstep>
  <scstep>
   <time name="dav">    2.45    2.46</time>
   <time name="total">    2.86    2.87</time>
   <energy>
    <i name="e_fr_energy">   -346.90688905 </i>
    <i name="e_wo_entrp">   -346.90688905 </i>
    <i name="e_0_energy">   -346.90688905 </i>
   </energy>
  </scstep>
  <scstep>
   <time name="dav">    2.57    2.57</time>
   <time name="total">    2.99    3.00</time>
   <energy>
    <i name="e_fr_energy">   -346.90686750 </i>
    <i name="e_wo_entrp">   -346.90686750 </i>
    <i name="e_0_energy">   -346.90686750 </i>
   </energy>
  </scstep>
  <scstep>
   <time name="dav">    2.58    2.58</time>
   <time name="total">    2.99    2.99</time>
   <energy>
    <i name="e_fr_energy">   -346.90688212 </i>
    <i name="e_wo_entrp">   -346.90688212 </i>
    <i name="e_0_energy">   -346.90688212 </i>
   </energy>
  </scstep>
  <scstep>
   <time name="dav">    2.52    2.52</time>
   <time name="total">    2.92    2.94</time>
   <energy>
    <i name="e_fr_energy">   -346.90688268 </i>
    <i name="e_wo_entrp">   -346.90688268 </i>
    <i name="e_0_energy">   -346.90688268 </i>
   </energy>
  </scstep>
  <scstep>
   <time name="dav">    2.63    2.63</time>
   <time name="total">    3.03    3.05</time>
   <energy>
    <i name="e_fr_energy">   -346.90688323 </i>
    <i name="e_wo_entrp">   -346.90688323 </i>
    <i name="e_0_energy">   -346.90688323 </i>
   </energy>
  </scstep>
  <scstep>
   <time name="dav">    2.15    2.15</time>
   <time name="total">    2.55    2.56</time>
   <energy>
    <i name="e_fr_energy">   -346.90688300 </i>
    <i name="e_wo_entrp">   -346.90688300 </i>
    <i name="e_0_energy">   -346.90688300 </i>
   </energy>
  </scstep>
  <scstep>
   <time name="dav">    1.74    1.74</time>
   <time name="total">    2.14    2.15</time>
   <energy>
    <i name="e_fr_energy">   -346.90688306 </i>
    <i name="e_wo_entrp">   -346.90688306 </i>
    <i name="e_0_energy">   -346.90688306 </i>
   </energy>
  </scstep>
  <scstep>
   <time name="dav">    1.74    1.74</time>
   <time name="total">    2.15    2.15</time>
   <energy>
    <i name="e_fr_energy">   -346.90688304 </i>
    <i name="e_wo_entrp">   -346.90688304 </i>
    <i name="e_0_energy">   -346.90688304 </i>
   </energy>
  </scstep>
  <scstep>
   <time name="dav">    1.74    1.74</time>
   <time name="total">    2.14    2.15</time>
   <energy>
    <i name="e_fr_energy">   -346.90688306 </i>
    <i name="e_wo_entrp">   -346.90688306 </i>
    <i name="e_0_energy">   -346.90688306 </i>
   </energy>
  </scstep>
  <scstep>
   <time name="dav">    1.75    1.75</time>
   <time name="total">    1.95    1.96</time>
   <energy>
    <i name="alphaZ">    105.52440745 </i>
    <i name="ewald">  -7265.47113643 </i>
    <i name="hartreedc">   -485.14328383 </i>
    <i name="XCdc">   -577.61228874 </i>
    <i name="pawpsdc">  27883.43482932 </i>
    <i name="pawaedc"> -26764.15275829 </i>
    <i name="eentropy">      0.00000000 </i>
    <i name="bandstr">    160.36339955 </i>
    <i name="atom">   6596.14994790 </i>
    <i name="e_fr_energy">   -346.90688306 </i>
    <i name="e_wo_entrp">   -346.90688306 </i>
    <i name="e_0_energy">   -346.90688306 </i>
   </energy>
  </scstep>
  <structure>
   <crystal>
    <varray name="basis" >
     <v>      10.93252578       0.00000000       0.00000000 </v>
     <v>       0.00000000      10.93252578       0.00000000 </v>
     <v>       0.00000000       0.00000000      10.93252578 </v>
    </varray>
    <i name="volume">   1306.65679237 </i>
    <varray name="rec_basis" >
     <v>       0.09147017       0.00000000       0.00000000 </v>
     <v>       0.00000000       0.09147017       0.00000000 </v>
     <v>       0.00000000       0.00000000       0.09147017 </v>
    </varray>
   </crystal>
   <varray name="positions" >
    <v>       0.44024411       0.43750000       0.43750000 </v>
    <v>       0.93750000       0.43750000       0.43750000 </v>
    <v>       0.43750000       0.93750000       0.43750000 </v>
    <v>       0.93750000       0.93750000       0.43750000 </v>
    <v>       0.43750000       0.43750000       0.93750000 </v>
    <v>       0.93750000       0.43750000       0.93750000 </v>
    <v>       0.43750000       0.93750000       0.93750000 </v>
    <v>       0.93750000       0.93750000       0.93750000 </v>
    <v>       0.43750000       0.18750000       0.18750000 </v>
    <v>       0.93750000       0.18750000       0.18750000 </v>
    <v>       0.43750000       0.68750000       0.18750000 </v>
    <v>       0.93750000       0.68750000       0.18750000 </v>
    <v>       0.43750000       0.18750000       0.68750000 </v>
    <v>       0.93750000       0.18750000       0.68750000 </v>
    <v>       0.43750000       0.68750000       0.68750000 </v>
    <v>       0.93750000       0.68750000       0.68750000 </v>
    <v>       0.18750000       0.43750000       0.18750000 </v>
    <v>       0.68750000       0.43750000       0.18750000 </v>
    <v>       0.18475589       0.93750000       0.18750000 </v>
    <v>       0.68750000       0.93750000       0.18750000 </v>
    <v>       0.18750000       0.43750000       0.68750000 </v>
    <v>       0.68750000       0.43750000       0.68750000 </v>
    <v>       0.18750000       0.93750000       0.68750000 </v>
    <v>       0.68750000       0.93750000       0.68750000 </v>
    <v>       0.18750000       0.18750000       0.43750000 </v>
    <v>       0.68750000       0.18750000       0.43750000 </v>
    <v>       0.18750000       0.68750000       0.43750000 </v>
    <v>       0.68750000       0.68750000       0.43750000 </v>
    <v>       0.18750000       0.18750000       0.93750000 </v>
    <v>       0.68750000       0.18750000       0.93750000 </v>
    <v>       0.18750000       0.68750000       0.93750000 </v>
    <v>       0.68750000       0.68750000       0.93750000 </v>
    <v>       0.06250000       0.06250000       0.06250000 </v>
    <v>       0.56250000       0.06250000       0.06250000 </v>
    <v>       0.06250000       0.56250000       0.06250000 </v>
    <v>       0.56250000       0.56250000       0.06250000 </v>
    <v>       0.06250000       0.06250000       0.56250000 </v>
    <v>       0.56250000       0.06250000       0.56250000 </v>
    <v>       0.06250000       0.56250000       0.56250000 </v>
    <v>       0.56250000       0.56250000       0.56250000 </v>
    <v>       0.06250000       0.31250000       0.31250000 </v>
    <v>       0.56250000       0.31250000       0.31250000 </v>
    <v>       0.06250000       0.81250000       0.31250000 </v>
    <v>       0.56250000       0.81250000       0.31250000 </v>
    <v>       0.06250000       0.31250000       0.81250000 </v>
    <v>       0.56250000       0.31250000       0.81250000 </v>
    <v>       0.06250000       0.81250000       0.81250000 </v>
    <v>       0.56250000       0.81250000       0.81250000 </v>
    <v>       0.31250000       0.06250000       0.31250000 </v>
    <v>       0.81250000       0.06250000       0.31250000 </v>
    <v>       0.31250000       0.56250000       0.31250000 </v>
    <v>       0.81250000       0.56250000       0.31250000 </v>
    <v>       0.31250000       0.06250000       0.81250000 </v>
    <v>       0.81250000       0.06250000       0.81250000 </v>
    <v>       0.31250000       0.56250000       0.81250000 </v>
    <v>       0.81250000       0.56250000       0.81250000 </v>
    <v>       0.31250000       0.31250000       0.06250000 </v>
    <v>       0.81250000       0.31250000       0.06250000 </v>
    <v>       0.31250000       0.81250000       0.06250000 </v>
    <v>       0.81250000       0.81250000       0.06250000 </v>
    <v>       0.31250000       0.31250000       0.56250000 </v>
    <v>       0.81250000       0.31250000       0.56250000 </v>
    <v>       0.31250000       0.81250000       0.56250000 </v>
    <v>       0.81250000       0.81250000       0.56250000 </v>
   </varray>
  </structure>
  <varray name="forces" >
   <v>      -0.38815042      -0.00021700       0.00185229 </v>
   <v>      -0.00047169      -0.00023031      -0.00184623 </v>
   <v>      -0.00433353      -0.00267202      -0.00556444 </v>
   <v>      -0.00597394      -0.00277430       0.00568637 </v>
   <v>       0.00029845       0.00023000      -0.00186187 </v>
   <v>      -0.00119742       0.00022505       0.00184790 </v>
   <v>      -0.01719869       0.00266486       0.00554768 </v>
   <v>      -0.00522411       0.00276468      -0.00568781 </v>
   <v>      -0.01852256      -0.00277917       0.00009250 </v>
   <v>      -0.00582874       0.00591796      -0.00253983 </v>
   <v>      -0.01842636       0.00822291       0.00001380 </v>
   <v>      -0.00580569      -0.00545524       0.00253564 </v>
   <v>      -0.01378970      -0.00079856       0.00243586 </v>
   <v>      -0.00102263      -0.00207963       0.00000500 </v>
   <v>      -0.01390144      -0.00463405      -0.00253760 </v>
   <v>      -0.00104579       0.00162176       0.00000119 </v>
   <v>       0.00433353      -0.00267202       0.00556444 </v>
   <v>       0.00597394      -0.00277430      -0.00568637 </v>
   <v>       0.38815042      -0.00021700      -0.00185229 </v>
   <v>       0.00047169      -0.00023031       0.00184623 </v>
   <v>       0.01719869       0.00266486      -0.00554768 </v>
   <v>       0.00522411       0.00276468       0.00568781 </v>
   <v>      -0.00029845       0.00023000       0.00186187 </v>
   <v>       0.00119742       0.00022505      -0.00184790 </v>
   <v>       0.01842636       0.00822291      -0.00001380 </v>
   <v>       0.00580569      -0.00545524      -0.00253564 </v>
   <v>       0.01852256      -0.00277917      -0.00009250 </v>
   <v>       0.00582874       0.00591796       0.00253983 </v>
   <v>       0.01390144      -0.00463405       0.00253760 </v>
   <v>       0.00104579       0.00162176      -0.00000119 </v>
   <v>       0.01378970      -0.00079856      -0.00243586 </v>
   <v>       0.00102263      -0.00207963      -0.00000500 </v>
   <v>      -0.09633980       0.06686332      -0.06536249 </v>
   <v>       0.00648561       0.00159499      -0.00022239 </v>
   <v>       0.00209307       0.00158076      -0.00061068 </v>
   <v>      -0.00209215       0.00181277       0.00026922 </v>
   <v>       0.00209215       0.00181277      -0.00026922 </v>
   <v>      -0.00209307       0.00158076       0.00061068 </v>
   <v>      -0.00648561       0.00159499       0.00022239 </v>
   <v>       0.09633980       0.06686332       0.06536249 </v>
   <v>       0.00120073      -0.00183512       0.00030181 </v>
   <v>       0.09519146      -0.06671914      -0.06546890 </v>
   <v>      -0.09519146      -0.06671914       0.06546890 </v>
   <v>      -0.00120073      -0.00183512      -0.00030181 </v>
   <v>      -0.00559590      -0.00133236       0.00008365 </v>
   <v>      -0.00093966      -0.00196755      -0.00016933 </v>
   <v>       0.00093966      -0.00196755       0.00016933 </v>
   <v>       0.00559590      -0.00133236      -0.00008365 </v>
   <v>      -0.09450931      -0.06185617      -0.05969894 </v>
   <v>       0.00093950      -0.00154132      -0.00019650 </v>
   <v>       0.09450931      -0.06185617       0.05969894 </v>
   <v>      -0.00093950      -0.00154132       0.00019650 </v>
   <v>       0.00756649      -0.00192208      -0.00021240 </v>
   <v>      -0.00119779      -0.00144976       0.00010596 </v>
   <v>      -0.00756649      -0.00192208       0.00021240 </v>
   <v>       0.00119779      -0.00144976      -0.00010596 </v>
   <v>       0.00000058       0.00213498       0.00035765 </v>
   <v>       0.00000024       0.00134713       0.00006608 </v>
   <v>      -0.08693342       0.06163413       0.06027947 </v>
   <v>      -0.00025801       0.00164849       0.00015824 </v>
   <v>       0.08693342       0.06163413      -0.06027947 </v>
   <v>       0.00025801       0.00164849      -0.00015824 </v>
   <v>      -0.00000058       0.00213498      -0.00035765 </v>
   <v>      -0.00000024       0.00134713      -0.00006608 </v>
  </varray>
  <varray name="stress" >
   <v>      -0.01769374       0.00000000       0.00001861 </v>
   <v>       0.00000000       0.02090480       0.00000000 </v>
   <v>       0.00001858       0.00000000       0.02099061 </v>
  </varray>
  <energy>
   <i name="e_fr_energy">   -346.90688306 </i>
   <i name="e_wo_entrp">   -346.90688306 </i>
   <i name="e_0_energy">      0.00000000 </i>
  </energy>
  <time name="totalsc">   57.28   57.86</time>
  <eigenvalues>
   <array>
    <dimension dim="1">band</dimension>
    <dimension dim="2">kpoint</dimension>
    <dimension dim="3">spin</dimension>
    <field>eigene</field>
    <field>occ</field>
    <set>
     <set comment="spin 1">
      <set comment="kpoint 1">
       <r>   -5.9932    1.0000 </r>
       <r>   -5.4673    1.0000 </r>
       <r>   -5.4648    1.0000 </r>
       <r>   -5.4623    1.0000 </r>
       <r>   -4.9680    1.0000 </r>
       <r>   -4.9655    1.0000 </r>
       <r>   -4.9630    1.0000 </r>
       <r>   -4.5323    1.0000 </r>
       <r>   -4.4349    1.0000 </r>
       <r>   -4.4325    1.0000 </r>
       <r>   -4.4300    1.0000 </r>
       <r>   -4.0252    1.0000 </r>
       <r>   -4.0186    1.0000 </r>
       <r>   -4.0169    1.0000 </r>
       <r>   -4.0149    1.0000 </r>
       <r>   -4.0143    1.0000 </r>
       <r>   -4.0088    1.0000 </r>
       <r>   -3.8293    1.0000 </r>
       <r>   -3.8243    1.0000 </r>
       <r>   -3.8193    1.0000 </r>
       <r>   -3.3310    1.0000 </r>
       <r>   -3.3284    1.0000 </r>
       <r>   -3.3257    1.0000 </r>
       <r>   -2.9640    1.0000 </r>
       <r>   -2.9591    1.0000 </r>
       <r>   -2.9545    1.0000 </r>
       <r>   -2.7993    1.0000 </r>
       <r>   -2.7931    1.0000 </r>
       <r>   -2.7916    1.0000 </r>
       <r>   -2.7892    1.0000 </r>
       <r>   -2.7882    1.0000 </r>
       <r>   -2.7836    1.0000 </r>
       <r>   -1.2562    1.0000 </r>
       <r>   -1.2521    1.0000 </r>
       <r>   -1.2492    1.0000 </r>
       <r>   -1.2474    1.0000 </r>
       <r>   -1.2461    1.0000 </r>
       <r>   -1.2426    1.0000 </r>
       <r>   -1.1554    1.0000 </r>
       <r>   -1.1510    1.0000 </r>
       <r>   -1.1466    1.0000 </r>
       <r>   -1.0360    1.0000 </r>
       <r>   -1.0327    1.0000 </r>
       <r>   -1.0293    1.0000 </r>
       <r>   -0.9517    1.0000 </r>
       <r>   -0.9468    1.0000 </r>
       <r>   -0.9417    1.0000 </r>
       <r>   -0.2445    1.0000 </r>
       <r>   -0.1668    1.0000 </r>
       <r>   -0.1641    1.0000 </r>
       <r>   -0.1607    1.0000 </r>
       <r>   -0.1594    1.0000 </r>
       <r>   -0.1566    1.0000 </r>
       <r>   -0.1531    1.0000 </r>
       <r>    0.7095    1.0000 </r>
       <r>    0.7144    1.0000 </r>
       <r>    0.7190    1.0000 </r>
       <r>    1.0456    1.0000 </r>
       <r>    1.0471    1.0000 </r>
       <r>    1.0485    1.0000 </r>
       <r>    1.6531    1.0000 </r>
       <r>    1.6549    1.0000 </r>
       <r>    1.6560    1.0000 </r>
       <r>    1.6575    1.0000 </r>
       <r>    1.6597    1.0000 </r>
       <r>    1.6600    1.0000 </r>
       <r>    1.7147    1.0000 </r>
       <r>    1.7163    1.0000 </r>
       <r>    1.7177    1.0000 </r>
       <r>    2.2655    1.0000 </r>
       <r>    2.2677    1.0000 </r>
       <r>    2.2699    1.0000 </r>
       <r>    2.3657    1.0000 </r>
       <r>    2.3670    1.0000 </r>
       <r>    2.3706    1.0000 </r>
       <r>    2.3720    1.0000 </r>
       <r>    2.3734    1.0000 </r>
       <r>    2.3756    1.0000 </r>
       <r>    2.4230    1.0000 </r>
       <r>    2.4251    1.0000 </r>
       <r>    2.4277    1.0000 </r>
       <r>    2.7307    1.0000 </r>
       <r>    2.7321    1.0000 </r>
       <r>    2.7340    1.0000 </r>
       <r>    2.7355    1.0000 </r>
       <r>    2.7374    1.0000 </r>
       <r>    2.7399    1.0000 </r>
       <r>    2.9973    1.0000 </r>
       <r>    2.9993    1.0000 </r>
       <r>    3.0013    1.0000 </r>
       <r>    3.0121    1.0000 </r>
       <r>    3.0137    1.0000 </r>
       <r>    3.0147    1.0000 </r>
       <r>    3.3589    1.0000 </r>
       <r>    3.3620    1.0000 </r>
       <r>    3.3649    1.0000 </r>
       <r>    3.3795    1.0000 </r>
       <r>    3.3844    1.0000 </r>
       <r>    3.3892    1.0000 </r>
       <r>    3.4646    1.0000 </r>
       <r>    3.4665    1.0000 </r>
       <r>    3.4686    1.0000 </r>
       <r>    3.7327    1.0000 </r>
       <r>    3.7386    1.0000 </r>
       <r>    3.7411    1.0000 </r>
       <r>    3.7419    1.0000 </r>
       <r>    3.7437    1.0000 </r>
       <r>    3.7494    1.0000 </r>
       <r>    3.7787    1.0000 </r>
       <r>    3.7806    1.0000 </r>
       <r>    3.7834    1.0000 </r>
       <r>    4.0405    1.0000 </r>
       <r>    4.0955    1.0000 </r>
       <r>    4.0980    1.0000 </r>
       <r>    4.1003    1.0000 </r>
       <r>    4.3389    1.0000 </r>
       <r>    4.3410    1.0000 </r>
       <r>    4.3432    1.0000 </r>
       <r>    4.4016    1.0000 </r>
       <r>    4.4056    1.0000 </r>
       <r>    4.4103    1.0000 </r>
       <r>    4.5630    1.0000 </r>
       <r>    4.5630    1.0000 </r>
       <r>    4.8673    1.0000 </r>
       <r>    4.8700    1.0000 </r>
       <r>    4.8730    1.0000 </r>
       <r>    5.3497    1.0000 </r>
       <r>    5.3498    1.0000 </r>
       <r>    6.5596    0.0000 </r>
       <r>    6.5634    0.0000 </r>
       <r>    6.5671    0.0000 </r>
       <r>    7.0007    0.0000 </r>
       <r>    7.0045    0.0000 </r>
       <r>    7.0081    0.0000 </r>
       <r>    7.2337    0.0000 </r>
       <r>    7.4877    0.0000 </r>
       <r>    7.4908    0.0000 </r>
       <r>    7.4937    0.0000 </r>
       <r>    7.6152    0.0000 </r>
       <r>    7.6195    0.0000 </r>
       <r>    7.6240    0.0000 </r>
       <r>    7.7772    0.0000 </r>
       <r>    7.7799    0.0000 </r>
       <r>    7.7822    0.0000 </r>
       <r>    7.7981    0.0000 </r>
       <r>    7.8012    0.0000 </r>
       <r>    7.8042    0.0000 </r>
       <r>    8.0239    0.0000 </r>
       <r>    8.0264    0.0000 </r>
       <r>    8.0306    0.0000 </r>
       <r>    8.0316    0.0000 </r>
       <r>    8.0340    0.0000 </r>
       <r>    8.0364    0.0000 </r>
       <r>    8.0814    0.0000 </r>
       <r>    8.2928    0.0000 </r>
       <r>    8.2951    0.0000 </r>
       <r>    8.2970    0.0000 </r>
       <r>    8.4957    0.0000 </r>
       <r>    8.4985    0.0000 </r>
       <r>    8.5025    0.0000 </r>
       <r>    8.5039    0.0000 </r>
       <r>    8.5099    0.0000 </r>
       <r>    8.5223    0.0000 </r>
       <r>    8.5474    0.0000 </r>
      </set>
      <set comment="kpoint 2">
       <r>   -5.9932    1.0000 </r>
       <r>   -5.4687    1.0000 </r>
       <r>   -5.4647    1.0000 </r>
       <r>   -5.4609    1.0000 </r>
       <r>   -4.9694    1.0000 </r>
       <r>   -4.9655    1.0000 </r>
       <r>   -4.9618    1.0000 </r>
       <r>   -4.5322    1.0000 </r>
       <r>   -4.4365    1.0000 </r>
       <r>   -4.4324    1.0000 </r>
       <r>   -4.4284    1.0000 </r>
       <r>   -4.0256    1.0000 </r>
       <r>   -4.0193    1.0000 </r>
       <r>   -4.0165    1.0000 </r>
       <r>   -4.0147    1.0000 </r>
       <r>   -4.0138    1.0000 </r>
       <r>   -4.0089    1.0000 </r>
       <r>   -3.8293    1.0000 </r>
       <r>   -3.8243    1.0000 </r>
       <r>   -3.8193    1.0000 </r>
       <r>   -3.3329    1.0000 </r>
       <r>   -3.3283    1.0000 </r>
       <r>   -3.3238    1.0000 </r>
       <r>   -2.9640    1.0000 </r>
       <r>   -2.9591    1.0000 </r>
       <r>   -2.9545    1.0000 </r>
       <r>   -2.7996    1.0000 </r>
       <r>   -2.7934    1.0000 </r>
       <r>   -2.7912    1.0000 </r>
       <r>   -2.7893    1.0000 </r>
       <r>   -2.7881    1.0000 </r>
       <r>   -2.7834    1.0000 </r>
       <r>   -1.2563    1.0000 </r>
       <r>   -1.2523    1.0000 </r>
       <r>   -1.2488    1.0000 </r>
       <r>   -1.2474    1.0000 </r>
       <r>   -1.2458    1.0000 </r>
       <r>   -1.2427    1.0000 </r>
       <r>   -1.1554    1.0000 </r>
       <r>   -1.1511    1.0000 </r>
       <r>   -1.1466    1.0000 </r>
       <r>   -1.0360    1.0000 </r>
       <r>   -1.0327    1.0000 </r>
       <r>   -1.0293    1.0000 </r>
       <r>   -0.9535    1.0000 </r>
       <r>   -0.9468    1.0000 </r>
       <r>   -0.9398    1.0000 </r>
       <r>   -0.2445    1.0000 </r>
       <r>   -0.1675    1.0000 </r>
       <r>   -0.1643    1.0000 </r>
       <r>   -0.1610    1.0000 </r>
       <r>   -0.1583    1.0000 </r>
       <r>   -0.1564    1.0000 </r>
       <r>   -0.1532    1.0000 </r>
       <r>    0.7090    1.0000 </r>
       <r>    0.7143    1.0000 </r>
       <r>    0.7194    1.0000 </r>
       <r>    1.0449    1.0000 </r>
       <r>    1.0471    1.0000 </r>
       <r>    1.0493    1.0000 </r>
       <r>    1.6534    1.0000 </r>
       <r>    1.6537    1.0000 </r>
       <r>    1.6566    1.0000 </r>
       <r>    1.6580    1.0000 </r>
       <r>    1.6592    1.0000 </r>
       <r>    1.6609    1.0000 </r>
       <r>    1.7133    1.0000 </r>
       <r>    1.7158    1.0000 </r>
       <r>    1.7189    1.0000 </r>
       <r>    2.2655    1.0000 </r>
       <r>    2.2678    1.0000 </r>
       <r>    2.2699    1.0000 </r>
       <r>    2.3652    1.0000 </r>
       <r>    2.3672    1.0000 </r>
       <r>    2.3709    1.0000 </r>
       <r>    2.3721    1.0000 </r>
       <r>    2.3743    1.0000 </r>
       <r>    2.3759    1.0000 </r>
       <r>    2.4219    1.0000 </r>
       <r>    2.4248    1.0000 </r>
       <r>    2.4279    1.0000 </r>
       <r>    2.7298    1.0000 </r>
       <r>    2.7326    1.0000 </r>
       <r>    2.7337    1.0000 </r>
       <r>    2.7361    1.0000 </r>
       <r>    2.7382    1.0000 </r>
       <r>    2.7391    1.0000 </r>
       <r>    2.9975    1.0000 </r>
       <r>    2.9993    1.0000 </r>
       <r>    3.0009    1.0000 </r>
       <r>    3.0114    1.0000 </r>
       <r>    3.0135    1.0000 </r>
       <r>    3.0157    1.0000 </r>
       <r>    3.3585    1.0000 </r>
       <r>    3.3621    1.0000 </r>
       <r>    3.3651    1.0000 </r>
       <r>    3.3797    1.0000 </r>
       <r>    3.3845    1.0000 </r>
       <r>    3.3890    1.0000 </r>
       <r>    3.4640    1.0000 </r>
       <r>    3.4667    1.0000 </r>
       <r>    3.4693    1.0000 </r>
       <r>    3.7327    1.0000 </r>
       <r>    3.7383    1.0000 </r>
       <r>    3.7414    1.0000 </r>
       <r>    3.7418    1.0000 </r>
       <r>    3.7441    1.0000 </r>
       <r>    3.7490    1.0000 </r>
       <r>    3.7777    1.0000 </r>
       <r>    3.7809    1.0000 </r>
       <r>    3.7838    1.0000 </r>
       <r>    4.0405    1.0000 </r>
       <r>    4.0957    1.0000 </r>
       <r>    4.0979    1.0000 </r>
       <r>    4.1004    1.0000 </r>
       <r>    4.3381    1.0000 </r>
       <r>    4.3410    1.0000 </r>
       <r>    4.3442    1.0000 </r>
       <r>    4.4005    1.0000 </r>
       <r>    4.4056    1.0000 </r>
       <r>    4.4116    1.0000 </r>
       <r>    4.5628    1.0000 </r>
       <r>    4.5629    1.0000 </r>
       <r>    4.8659    1.0000 </r>
       <r>    4.8701    1.0000 </r>
       <r>    4.8742    1.0000 </r>
       <r>    5.3497    1.0000 </r>
       <r>    5.3498    1.0000 </r>
       <r>    6.5596    0.0000 </r>
       <r>    6.5634    0.0000 </r>
       <r>    6.5671    0.0000 </r>
       <r>    6.9998    0.0000 </r>
       <r>    7.0045    0.0000 </r>
       <r>    7.0090    0.0000 </r>
       <r>    7.2337    0.0000 </r>
       <r>    7.4870    0.0000 </r>
       <r>    7.4907    0.0000 </r>
       <r>    7.4943    0.0000 </r>
       <r>    7.6152    0.0000 </r>
       <r>    7.6195    0.0000 </r>
       <r>    7.6241    0.0000 </r>
       <r>    7.7760    0.0000 </r>
       <r>    7.7797    0.0000 </r>
       <r>    7.7831    0.0000 </r>
       <r>    7.7984    0.0000 </r>
       <r>    7.8014    0.0000 </r>
       <r>    7.8044    0.0000 </r>
       <r>    8.0243    0.0000 </r>
       <r>    8.0267    0.0000 </r>
       <r>    8.0298    0.0000 </r>
       <r>    8.0326    0.0000 </r>
       <r>    8.0342    0.0000 </r>
       <r>    8.0355    0.0000 </r>
       <r>    8.0813    0.0000 </r>
       <r>    8.2921    0.0000 </r>
       <r>    8.2950    0.0000 </r>
       <r>    8.2978    0.0000 </r>
       <r>    8.4944    0.0000 </r>
       <r>    8.5000    0.0000 </r>
       <r>    8.5015    0.0000 </r>
       <r>    8.5053    0.0000 </r>
       <r>    8.5068    0.0000 </r>
       <r>    8.5199    0.0000 </r>
       <r>    8.5392    0.0000 </r>
      </set>
     </set>
    </set>
   </array>
  </eigenvalues>
  <separator name="orbital magnetization" >
   <v name="MAGDIPOLOUT">      0.00000000      0.00000000      0.00000000</v>
  </separator>
  <dos>
   <i name="efermi">      5.59901335 </i>
   <total>
    <array>
     <dimension dim="1">gridpoints</dimension>
     <dimension dim="2">spin</dimension>
     <field>energy</field>
     <field>total</field>
     <field>integrated</field>
     <set>
      <set comment="spin 1">
       <r>    -6.7202     0.0000     0.0000 </r>
       <r>    -6.6669     0.0000     0.0000 </r>
       <r>    -6.6136     0.0000     0.0000 </r>
       <r>    -6.5603     0.0000     0.0000 </r>
       <r>    -6.5069     0.0000     0.0000 </r>
       <r>    -6.4536     0.0000     0.0000 </r>
       <r>    -6.4003     0.0000     0.0000 </r>
       <r>    -6.3470     0.0000     0.0000 </r>
       <r>    -6.2937     0.0000     0.0000 </r>
       <r>    -6.2404     0.0000     0.0000 </r>
       <r>    -6.1870     0.0000     0.0000 </r>
       <r>    -6.1337     0.0013     0.0001 </r>
       <r>    -6.0804     0.2538     0.0136 </r>
       <r>    -6.0271     6.0702     0.3372 </r>
       <r>    -5.9738    20.2439     1.4166 </r>
       <r>    -5.9205    10.1978     1.9603 </r>
       <r>    -5.8671     0.7387     1.9996 </r>
       <r>    -5.8138     0.0068     2.0000 </r>
       <r>    -5.7605     0.0000     2.0000 </r>
       <r>    -5.7072     0.0000     2.0000 </r>
       <r>    -5.6539     0.0000     2.0000 </r>
       <r>    -5.6006     0.0072     2.0004 </r>
       <r>    -5.5473     1.1181     2.0600 </r>
       <r>    -5.4939    21.9828     3.2320 </r>
       <r>    -5.4406    61.5250     6.5123 </r>
       <r>    -5.3873    26.2773     7.9132 </r>
       <r>    -5.3340     1.6145     7.9993 </r>
       <r>    -5.2807     0.0127     8.0000 </r>
       <r>    -5.2274     0.0000     8.0000 </r>
       <r>    -5.1740     0.0000     8.0000 </r>
       <r>    -5.1207     0.0007     8.0000 </r>
       <r>    -5.0674     0.2273     8.0122 </r>
       <r>    -5.0141     9.3725     8.5119 </r>
       <r>    -4.9608    52.6485    11.3188 </r>
       <r>    -4.9075    44.5751    13.6954 </r>
       <r>    -4.8542     5.6190    13.9950 </r>
       <r>    -4.8008     0.0945    14.0000 </r>
       <r>    -4.7475     0.0002    14.0000 </r>
       <r>    -4.6942     0.0001    14.0000 </r>
       <r>    -4.6409     0.0397    14.0021 </r>
       <r>    -4.5876     2.1680    14.1177 </r>
       <r>    -4.5343    15.9312    14.9671 </r>
       <r>    -4.4809    26.2607    16.3672 </r>
       <r>    -4.4276    55.3888    19.3203 </r>
       <r>    -4.3743    44.5674    21.6964 </r>
       <r>    -4.3210     5.6002    21.9950 </r>
       <r>    -4.2677     0.0940    22.0000 </r>
       <r>    -4.2144     0.0002    22.0000 </r>
       <r>    -4.1611     0.0058    22.0003 </r>
       <r>    -4.1077     1.1890    22.0637 </r>
       <r>    -4.0544    31.1943    23.7268 </r>
       <r>    -4.0011   117.5824    29.9958 </r>
       <r>    -3.9478    69.0058    33.6749 </r>
       <r>    -3.8945     8.7647    34.1422 </r>
       <r>    -3.8412    33.1072    35.9073 </r>
       <r>    -3.7878    59.5621    39.0829 </r>
       <r>    -3.7345    16.5457    39.9650 </r>
       <r>    -3.6812     0.6528    39.9998 </r>
       <r>    -3.6279     0.0033    40.0000 </r>
       <r>    -3.5746     0.0000    40.0000 </r>
       <r>    -3.5213     0.0000    40.0000 </r>
       <r>    -3.4680     0.0047    40.0003 </r>
       <r>    -3.4146     0.8406    40.0451 </r>
       <r>    -3.3613    18.9992    41.0580 </r>
       <r>    -3.3080    60.8078    44.3000 </r>
       <r>    -3.2547    29.7500    45.8861 </r>
       <r>    -3.2014     2.1159    45.9990 </r>
       <r>    -3.1481     0.0195    46.0000 </r>
       <r>    -3.0947     0.0078    46.0004 </r>
       <r>    -3.0414     1.1615    46.0623 </r>
       <r>    -2.9881    22.2511    47.2487 </r>
       <r>    -2.9348    61.3955    50.5220 </r>
       <r>    -2.8815    27.3466    51.9800 </r>
       <r>    -2.8282    33.6216    53.7726 </r>
       <r>    -2.7749   118.1737    60.0730 </r>
       <r>    -2.7215    67.7852    63.6870 </r>
       <r>    -2.6682     5.8037    63.9965 </r>
       <r>    -2.6149     0.0661    64.0000 </r>
       <r>    -2.5616     0.0001    64.0000 </r>
       <r>    -2.5083     0.0000    64.0000 </r>
       <r>    -2.4550     0.0000    64.0000 </r>
       <r>    -2.4016     0.0000    64.0000 </r>
       <r>    -2.3483     0.0000    64.0000 </r>
       <r>    -2.2950     0.0000    64.0000 </r>
       <r>    -2.2417     0.0000    64.0000 </r>
       <r>    -2.1884     0.0000    64.0000 </r>
       <r>    -2.1351     0.0000    64.0000 </r>
       <r>    -2.0817     0.0000    64.0000 </r>
       <r>    -2.0284     0.0000    64.0000 </r>
       <r>    -1.9751     0.0000    64.0000 </r>
       <r>    -1.9218     0.0000    64.0000 </r>
       <r>    -1.8685     0.0000    64.0000 </r>
       <r>    -1.8152     0.0000    64.0000 </r>
       <r>    -1.7619     0.0000    64.0000 </r>
       <r>    -1.7085     0.0000    64.0000 </r>
       <r>    -1.6552     0.0000    64.0000 </r>
       <r>    -1.6019     0.0000    64.0000 </r>
       <r>    -1.5486     0.0000    64.0000 </r>
       <r>    -1.4953     0.0000    64.0000 </r>
       <r>    -1.4420     0.0000    64.0000 </r>
       <r>    -1.3886     0.0099    64.0005 </r>
       <r>    -1.3353     1.7094    64.0917 </r>
       <r>    -1.2820    37.9733    66.1162 </r>
       <r>    -1.2287   122.7712    72.6618 </r>
       <r>    -1.1754    85.9665    77.2452 </r>
       <r>    -1.1221    66.4356    80.7872 </r>
       <r>    -1.0688    38.9962    82.8663 </r>
       <r>    -1.0154    64.0350    86.2804 </r>
       <r>    -0.9621    67.0991    89.8578 </r>
       <r>    -0.9088    61.4447    93.1338 </r>
       <r>    -0.8555    15.6511    93.9682 </r>
       <r>    -0.8022     0.5933    93.9998 </r>
       <r>    -0.7489     0.0029    94.0000 </r>
       <r>    -0.6955     0.0000    94.0000 </r>
       <r>    -0.6422     0.0000    94.0000 </r>
       <r>    -0.5889     0.0000    94.0000 </r>
       <r>    -0.5356     0.0000    94.0000 </r>
       <r>    -0.4823     0.0000    94.0000 </r>
       <r>    -0.4290     0.0000    94.0000 </r>
       <r>    -0.3757     0.0039    94.0002 </r>
       <r>    -0.3223     0.5175    94.0278 </r>
       <r>    -0.2690     8.8966    94.5021 </r>
       <r>    -0.2157    33.7110    96.2994 </r>
       <r>    -0.1624   100.8099   101.6742 </r>
       <r>    -0.1091   101.4947   107.0854 </r>
       <r>    -0.0558    16.7683   107.9794 </r>
       <r>    -0.0024     0.3848   107.9999 </r>
       <r>     0.0509     0.0011   108.0000 </r>
       <r>     0.1042     0.0000   108.0000 </r>
       <r>     0.1575     0.0000   108.0000 </r>
       <r>     0.2108     0.0000   108.0000 </r>
       <r>     0.2641     0.0000   108.0000 </r>
       <r>     0.3174     0.0000   108.0000 </r>
       <r>     0.3708     0.0000   108.0000 </r>
       <r>     0.4241     0.0000   108.0000 </r>
       <r>     0.4774     0.0000   108.0000 </r>
       <r>     0.5307     0.0000   108.0000 </r>
       <r>     0.5840     0.0142   108.0008 </r>
       <r>     0.6373     1.7092   108.0919 </r>
       <r>     0.6907    26.7961   109.5205 </r>
       <r>     0.7440    61.2786   112.7876 </r>
       <r>     0.7973    21.6324   113.9410 </r>
       <r>     0.8506     1.1000   113.9996 </r>
       <r>     0.9039     0.0101   114.0002 </r>
       <r>     0.9572     0.6225   114.0333 </r>
       <r>     1.0105    16.3606   114.9056 </r>
       <r>     1.0639    59.8006   118.0939 </r>
       <r>     1.1172    33.0719   119.8572 </r>
       <r>     1.1705     2.6516   119.9985 </r>
       <r>     1.2238     0.0274   120.0000 </r>
       <r>     1.2771     0.0000   120.0000 </r>
       <r>     1.3304     0.0000   120.0000 </r>
       <r>     1.3838     0.0000   120.0000 </r>
       <r>     1.4371     0.0000   120.0000 </r>
       <r>     1.4904     0.0003   120.0000 </r>
       <r>     1.5437     0.1579   120.0084 </r>
       <r>     1.5970    10.1370   120.5489 </r>
       <r>     1.6503    89.2111   125.3052 </r>
       <r>     1.7037   145.2490   133.0493 </r>
       <r>     1.7570    78.3321   137.2256 </r>
       <r>     1.8103    14.0838   137.9764 </r>
       <r>     1.8636     0.4400   137.9999 </r>
       <r>     1.9169     0.0017   138.0000 </r>
       <r>     1.9702     0.0000   138.0000 </r>
       <r>     2.0235     0.0000   138.0000 </r>
       <r>     2.0769     0.0000   138.0000 </r>
       <r>     2.1302     0.0057   138.0003 </r>
       <r>     2.1835     0.9706   138.0521 </r>
       <r>     2.2368    20.5700   139.1488 </r>
       <r>     2.2901    63.9677   142.5592 </r>
       <r>     2.3434    76.0347   146.6130 </r>
       <r>     2.3968   147.5096   154.4776 </r>
       <r>     2.4501   111.1467   160.4034 </r>
       <r>     2.5034    28.3998   161.9176 </r>
       <r>     2.5567     1.5345   161.9994 </r>
       <r>     2.6100     0.0601   162.0026 </r>
       <r>     2.6633     4.8702   162.2623 </r>
       <r>     2.7166    63.3512   165.6399 </r>
       <r>     2.7700   120.3892   172.0585 </r>
       <r>     2.8233    34.9750   173.9232 </r>
       <r>     2.8766     1.4695   174.0015 </r>
       <r>     2.9299     3.8050   174.2044 </r>
       <r>     2.9832    54.8098   177.1266 </r>
       <r>     3.0365   120.9949   183.5775 </r>
       <r>     3.0899    43.1053   185.8757 </r>
       <r>     3.1432     2.3153   185.9991 </r>
       <r>     3.1965     0.0168   186.0000 </r>
       <r>     3.2498     0.0965   186.0052 </r>
       <r>     3.3031     6.6297   186.3586 </r>
       <r>     3.3564    67.0407   189.9329 </r>
       <r>     3.4097   120.6592   196.3659 </r>
       <r>     3.4631    80.6795   200.6674 </r>
       <r>     3.5164    53.5044   203.5200 </r>
       <r>     3.5697     8.8005   203.9892 </r>
       <r>     3.6230     0.3071   204.0056 </r>
       <r>     3.6763     7.8585   204.4246 </r>
       <r>     3.7296    84.2927   208.9187 </r>
       <r>     3.7830   164.4744   217.6877 </r>
       <r>     3.8363    73.3900   221.6005 </r>
       <r>     3.8896     7.3687   221.9934 </r>
       <r>     3.9429     0.2326   222.0058 </r>
       <r>     3.9962     4.0691   222.2227 </r>
       <r>     4.0495    28.0120   223.7162 </r>
       <r>     4.1028    66.3085   227.2515 </r>
       <r>     4.1562    45.8914   229.6982 </r>
       <r>     4.2095     5.5798   229.9957 </r>
       <r>     4.2628     1.6113   230.0816 </r>
       <r>     4.3161    26.2083   231.4789 </r>
       <r>     4.3694    78.1981   235.6481 </r>
       <r>     4.4227    82.1979   240.0305 </r>
       <r>     4.4761    34.7240   241.8818 </r>
       <r>     4.5294    15.0439   242.6839 </r>
       <r>     4.5827    40.5895   244.8480 </r>
       <r>     4.6360    20.1557   245.9226 </r>
       <r>     4.6893     1.4392   245.9993 </r>
       <r>     4.7426     0.0315   246.0010 </r>
       <r>     4.7959     2.0415   246.1098 </r>
       <r>     4.8493    29.2865   247.6712 </r>
       <r>     4.9026    60.9454   250.9206 </r>
       <r>     4.9559    19.3695   251.9533 </r>
       <r>     5.0092     0.8716   251.9997 </r>
       <r>     5.0625     0.0049   252.0000 </r>
       <r>     5.1158     0.0000   252.0000 </r>
       <r>     5.1692     0.0000   252.0000 </r>
       <r>     5.2225     0.0120   252.0006 </r>
       <r>     5.2758     1.3570   252.0730 </r>
       <r>     5.3291    19.6239   253.1192 </r>
       <r>     5.3824    40.7084   255.2896 </r>
       <r>     5.4357    12.7614   255.9700 </r>
       <r>     5.4891     0.5593   255.9998 </r>
       <r>     5.5424     0.0030   256.0000 </r>
       <r>     5.5957     0.0000   256.0000 </r>
       <r>     5.6490     0.0000   256.0000 </r>
       <r>     5.7023     0.0000   256.0000 </r>
       <r>     5.7556     0.0000   256.0000 </r>
       <r>     5.8089     0.0000   256.0000 </r>
       <r>     5.8623     0.0000   256.0000 </r>
       <r>     5.9156     0.0000   256.0000 </r>
       <r>     5.9689     0.0000   256.0000 </r>
       <r>     6.0222     0.0000   256.0000 </r>
       <r>     6.0755     0.0000   256.0000 </r>
       <r>     6.1288     0.0000   256.0000 </r>
       <r>     6.1822     0.0000   256.0000 </r>
       <r>     6.2355     0.0000   256.0000 </r>
       <r>     6.2888     0.0000   256.0000 </r>
       <r>     6.3421     0.0000   256.0000 </r>
       <r>     6.3954     0.0001   256.0000 </r>
       <r>     6.4487     0.0693   256.0037 </r>
       <r>     6.5020     4.6513   256.2517 </r>
       <r>     6.5554    41.4772   258.4631 </r>
       <r>     6.6087    54.9768   261.3942 </r>
       <r>     6.6620    11.0555   261.9836 </r>
       <r>     6.7153     0.3063   261.9999 </r>
       <r>     6.7686     0.0010   262.0000 </r>
       <r>     6.8219     0.0000   262.0000 </r>
       <r>     6.8753     0.0155   262.0008 </r>
       <r>     6.9286     1.8253   262.0981 </r>
       <r>     6.9819    27.7423   263.5772 </r>
       <r>     7.0352    61.2229   266.8414 </r>
       <r>     7.0885    20.7250   267.9463 </r>
       <r>     7.1418     1.1760   268.0090 </r>
       <r>     7.1951     4.9954   268.2754 </r>
       <r>     7.2485    19.6584   269.3235 </r>
       <r>     7.3018    11.6727   269.9458 </r>
       <r>     7.3551     1.0129   269.9998 </r>
       <r>     7.4084     1.1452   270.0609 </r>
       <r>     7.4617    22.1348   271.2410 </r>
       <r>     7.5150    61.7232   274.5318 </r>
       <r>     7.5684    34.3452   276.3629 </r>
       <r>     7.6217    52.0967   279.1405 </r>
       <r>     7.6750    47.1379   281.6537 </r>
       <r>     7.7283    16.8748   282.5533 </r>
       <r>     7.7816    80.9087   286.8670 </r>
       <r>     7.8349   107.8104   292.6150 </r>
       <r>     7.8882    25.0647   293.9513 </r>
       <r>     7.9416     2.3147   294.0747 </r>
       <r>     7.9949    34.5411   295.9163 </r>
       <r>     8.0482   125.9777   302.6329 </r>
       <r>     8.1015    84.8215   307.1552 </r>
       <r>     8.1548    15.0894   307.9597 </r>
       <r>     8.2081     1.5494   308.0423 </r>
       <r>     8.2615    18.5579   309.0317 </r>
       <r>     8.3148    60.7654   312.2714 </r>
       <r>     8.3681    30.2447   313.8840 </r>
       <r>     8.4214     4.5146   314.1247 </r>
       <r>     8.4747    44.1268   316.4773 </r>
       <r>     8.5280   131.8965   323.5094 </r>
       <r>     8.5813    74.8016   327.4975 </r>
       <r>     8.6347     9.1893   327.9874 </r>
       <r>     8.6880     0.2346   327.9999 </r>
       <r>     8.7413     0.0010   328.0000 </r>
       <r>     8.7946     0.0000   328.0000 </r>
       <r>     8.8479     0.0000   328.0000 </r>
       <r>     8.9012     0.0000   328.0000 </r>
       <r>     8.9546     0.0000   328.0000 </r>
       <r>     9.0079     0.0000   328.0000 </r>
       <r>     9.0612     0.0000   328.0000 </r>
       <r>     9.1145     0.0000   328.0000 </r>
       <r>     9.1678     0.0000   328.0000 </r>
       <r>     9.2211     0.0000   328.0000 </r>
       <r>     9.2744     0.0000   328.0000 </r>
      </set>
     </set>
    </array>
   </total>
  </dos>
 </calculation>
 <structure name="finalpos" >
  <crystal>
   <varray name="basis" >
    <v>      10.93252578       0.00000000       0.00000000 </v>
    <v>       0.00000000      10.93252578       0.00000000 </v>
    <v>       0.00000000       0.00000000      10.93252578 </v>
   </varray>
   <i name="volume">   1306.65679237 </i>
   <varray name="rec_basis" >
    <v>       0.09147017       0.00000000       0.00000000 </v>
    <v>       0.00000000       0.09147017       0.00000000 </v>
    <v>       0.00000000       0.00000000       0.09147017 </v>
   </varray>
  </crystal>
  <varray name="positions" >
   <v>       0.44024411       0.43750000       0.43750000 </v>
   <v>       0.93750000       0.43750000       0.43750000 </v>
   <v>       0.43750000       0.93750000       0.43750000 </v>
   <v>       0.93750000       0.93750000       0.43750000 </v>
   <v>       0.43750000       0.43750000       0.93750000 </v>
   <v>       0.93750000       0.43750000       0.93750000 </v>
   <v>       0.43750000       0.93750000       0.93750000 </v>
   <v>       0.93750000       0.93750000       0.93750000 </v>
   <v>       0.43750000       0.18750000       0.18750000 </v>
   <v>       0.93750000       0.18750000       0.18750000 </v>
   <v>       0.43750000       0.68750000       0.18750000 </v>
   <v>       0.93750000       0.68750000       0.18750000 </v>
   <v>       0.43750000       0.18750000       0.68750000 </v>
   <v>       0.93750000       0.18750000       0.68750000 </v>
   <v>       0.43750000       0.68750000       0.68750000 </v>
   <v>       0.93750000       0.68750000       0.68750000 </v>
   <v>       0.18750000       0.43750000       0.18750000 </v>
   <v>       0.68750000       0.43750000       0.18750000 </v>
   <v>       0.18475589       0.93750000       0.18750000 </v>
   <v>       0.68750000       0.93750000       0.18750000 </v>
   <v>       0.18750000       0.43750000       0.68750000 </v>
   <v>       0.68750000       0.43750000       0.68750000 </v>
   <v>       0.18750000       0.93750000       0.68750000 </v>
   <v>       0.68750000       0.93750000       0.68750000 </v>
   <v>       0.18750000       0.18750000       0.43750000 </v>
   <v>       0.68750000       0.18750000       0.43750000 </v>
   <v>       0.18750000       0.68750000       0.43750000 </v>
   <v>       0.68750000       0.68750000       0.43750000 </v>
   <v>       0.18750000       0.18750000       0.93750000 </v>
   <v>       0.68750000       0.18750000       0.93750000 </v>
   <v>       0.18750000       0.68750000       0.93750000 </v>
   <v>       0.68750000       0.68750000       0.93750000 </v>
   <v>       0.06250000       0.06250000       0.06250000 </v>
   <v>       0.56250000       0.06250000       0.06250000 </v>
   <v>       0.06250000       0.56250000       0.06250000 </v>
   <v>       0.56250000       0.56250000       0.06250000 </v>
   <v>       0.06250000       0.06250000       0.56250000 </v>
   <v>       0.56250000       0.06250000       0.56250000 </v>
   <v>       0.06250000       0.56250000       0.56250000 </v>
   <v>       0.56250000       0.56250000       0.56250000 </v>
   <v>       0.06250000       0.31250000       0.31250000 </v>
   <v>       0.56250000       0.31250000       0.31250000 </v>
   <v>       0.06250000       0.81250000       0.31250000 </v>
   <v>       0.56250000       0.81250000       0.31250000 </v>
   <v>       0.06250000       0.31250000       0.81250000 </v>
   <v>       0.56250000       0.31250000       0.81250000 </v>
   <v>       0.06250000       0.81250000       0.81250000 </v>
   <v>       0.56250000       0.81250000       0.81250000 </v>
   <v>       0.31250000       0.06250000       0.31250000 </v>
   <v>       0.81250000       0.06250000       0.31250000 </v>
   <v>       0.31250000       0.56250000       0.31250000 </v>
   <v>       0.81250000       0.56250000       0.31250000 </v>
   <v>       0.31250000       0.06250000       0.81250000 </v>
   <v>       0.81250000       0.06250000       0.81250000 </v>
   <v>       0.31250000       0.56250000       0.81250000 </v>
   <v>       0.81250000       0.56250000       0.81250000 </v>
   <v>       0.31250000       0.31250000       0.06250000 </v>
   <v>       0.81250000       0.31250000       0.06250000 </v>
   <v>       0.31250000       0.81250000       0.06250000 </v>
   <v>       0.81250000       0.81250000       0.06250000 </v>
   <v>       0.31250000       0.31250000       0.56250000 </v>
   <v>       0.81250000       0.31250000       0.56250000 </v>
   <v>       0.31250000       0.81250000       0.56250000 </v>
   <v>       0.81250000       0.81250000       0.56250000 </v>
  </varray>
 </structure>
</modeling>
