<?xml version="1.0" encoding="ISO-8859-1"?>
<modeling>
 <generator>
  <i name="program" type="string">vasp </i>
  <i name="version" type="string">5.4.1  </i>
  <i name="subversion" type="string">05Feb16 (build Mar 26 2016 11:58:25) complex                          parallel </i>
  <i name="platform" type="string">IFC91_ompi </i>
  <i name="date" type="string">2017 03 12 </i>
  <i name="time" type="string">12:17:56 </i>
 </generator>
 <incar>
  <i type="string" name="PREC">accurate</i>
  <i type="int" name="IALGO">    38</i>
  <i type="logical" name="ADDGRID"> T  </i>
  <i type="int" name="NELMIN">     5</i>
  <i type="int" name="IBRION">    -1</i>
  <i name="EDIFF">      0.00000001</i>
  <i name="ENCUT">    300.00000000</i>
  <i type="logical" name="LREAL"> F  </i>
  <i type="int" name="ISMEAR">     0</i>
  <i name="SIGMA">      0.05000000</i>
  <i type="logical" name="LWAVE"> F  </i>
  <i type="logical" name="LCHARG"> F  </i>
  <v type="int" name="KPOINT_BSE">    -1     0     0     0</v>
 </incar>
 <kpoints>
  <generation param="Monkhorst-Pack">
   <v type="int" name="divisions">       2        2        2 </v>
   <v name="usershift">      0.00000000       0.00000000       0.00000000 </v>
   <v name="genvec1">      0.50000000       0.00000000       0.00000000 </v>
   <v name="genvec2">      0.00000000       0.50000000       0.00000000 </v>
   <v name="genvec3">      0.00000000       0.00000000       0.50000000 </v>
   <v name="shift">      0.50000000       0.50000000       0.50000000 </v>
  </generation>
  <varray name="kpointlist" >
   <v>       0.25000000       0.25000000       0.25000000 </v>
   <v>       0.25000000      -0.25000000       0.25000000 </v>
   <v>      -0.25000000      -0.25000000       0.25000000 </v>
  </varray>
  <varray name="weights" >
   <v>       0.50000000 </v>
   <v>       0.25000000 </v>
   <v>       0.25000000 </v>
  </varray>
 </kpoints>
 <parameters>
  <separator name="general" >
   <i type="string" name="SYSTEM">unknown system</i>
   <i type="logical" name="LCOMPAT"> F  </i>
  </separator>
  <separator name="electronic" >
   <i type="string" name="PREC">accura</i>
   <i name="ENMAX">    300.00000000</i>
   <i name="ENAUG">    322.06900000</i>
   <i name="EDIFF">      0.00000001</i>
   <i type="int" name="IALGO">    38</i>
   <i type="int" name="IWAVPR">    10</i>
   <i type="int" name="NBANDS">   164</i>
   <i name="NELECT">    256.00000000</i>
   <i type="int" name="TURBO">     0</i>
   <i type="int" name="IRESTART">     0</i>
   <i type="int" name="NREBOOT">     0</i>
   <i type="int" name="NMIN">     0</i>
   <i name="EREF">      0.00000000</i>
   <separator name="electronic smearing" >
    <i type="int" name="ISMEAR">     0</i>
    <i name="SIGMA">      0.05000000</i>
    <i name="KSPACING">      0.50000000</i>
    <i type="logical" name="KGAMMA"> T  </i>
   </separator>
   <separator name="electronic projectors" >
    <i type="logical" name="LREAL"> F  </i>
    <v name="ROPT">      0.00000000</v>
    <i type="int" name="LMAXPAW">  -100</i>
    <i type="int" name="LMAXMIX">     2</i>
    <i type="logical" name="NLSPLINE"> F  </i>
   </separator>
   <separator name="electronic startup" >
    <i type="int" name="ISTART">     0</i>
    <i type="int" name="ICHARG">     2</i>
    <i type="int" name="INIWAV">     1</i>
   </separator>
   <separator name="electronic spin" >
    <i type="int" name="ISPIN">     1</i>
    <i type="logical" name="LNONCOLLINEAR"> F  </i>
    <v name="MAGMOM">      1.00000000      1.00000000      1.00000000      1.00000000      1.00000000      1.00000000      1.00000000      1.00000000      1.00000000      1.00000000      1.00000000      1.00000000      1.00000000      1.00000000      1.00000000      1.00000000      1.00000000      1.00000000      1.00000000      1.00000000
      1.00000000      1.00000000      1.00000000      1.00000000      1.00000000      1.00000000      1.00000000      1.00000000      1.00000000      1.00000000      1.00000000      1.00000000      1.00000000      1.00000000      1.00000000      1.00000000      1.00000000      1.00000000      1.00000000      1.00000000
      1.00000000      1.00000000      1.00000000      1.00000000      1.00000000      1.00000000      1.00000000      1.00000000      1.00000000      1.00000000      1.00000000      1.00000000      1.00000000      1.00000000      1.00000000      1.00000000      1.00000000      1.00000000      1.00000000      1.00000000
      1.00000000      1.00000000      1.00000000      1.00000000</v>
    <i name="NUPDOWN">     -1.00000000</i>
    <i type="logical" name="LSORBIT"> F  </i>
    <v name="SAXIS">      0.00000000      0.00000000      1.00000000</v>
    <i type="logical" name="LSPIRAL"> F  </i>
    <v name="QSPIRAL">      0.00000000      0.00000000      0.00000000</v>
    <i type="logical" name="LZEROZ"> F  </i>
   </separator>
   <separator name="electronic exchange-correlation" >
    <i type="logical" name="LASPH"> F  </i>
    <i type="logical" name="LMETAGGA"> F  </i>
   </separator>
   <separator name="electronic convergence" >
    <i type="int" name="NELM">    60</i>
    <i type="int" name="NELMDL">    -5</i>
    <i type="int" name="NELMIN">     5</i>
    <i name="ENINI">    300.00000000</i>
    <separator name="electronic convergence detail" >
     <i type="logical" name="LDIAG"> T  </i>
     <i type="logical" name="LSUBROT"> F  </i>
     <i name="WEIMIN">      0.00000000</i>
     <i name="EBREAK">      0.00000000</i>
     <i name="DEPER">      0.30000000</i>
     <i type="int" name="NRMM">     4</i>
     <i name="TIME">      0.40000000</i>
    </separator>
   </separator>
   <separator name="electronic mixer" >
    <i name="AMIX">      0.40000000</i>
    <i name="BMIX">      1.00000000</i>
    <i name="AMIN">      0.10000000</i>
    <i name="AMIX_MAG">      1.60000000</i>
    <i name="BMIX_MAG">      1.00000000</i>
    <separator name="electronic mixer details" >
     <i type="int" name="IMIX">     4</i>
     <i type="logical" name="MIXFIRST"> F  </i>
     <i type="int" name="MAXMIX">   -45</i>
     <i name="WC">    100.00000000</i>
     <i type="int" name="INIMIX">     1</i>
     <i type="int" name="MIXPRE">     1</i>
     <i type="int" name="MREMOVE">     5</i>
    </separator>
   </separator>
   <separator name="electronic dipolcorrection" >
    <i type="logical" name="LDIPOL"> F  </i>
    <i type="logical" name="LMONO"> F  </i>
    <i type="int" name="IDIPOL">     0</i>
    <i name="EPSILON">      1.00000000</i>
    <v name="DIPOL">   -100.00000000   -100.00000000   -100.00000000</v>
    <i name="EFIELD">      0.00000000</i>
   </separator>
  </separator>
  <separator name="grids" >
   <i type="int" name="NGX">    64</i>
   <i type="int" name="NGY">    64</i>
   <i type="int" name="NGZ">    64</i>
   <i type="int" name="NGXF">   128</i>
   <i type="int" name="NGYF">   128</i>
   <i type="int" name="NGZF">   128</i>
   <i type="logical" name="ADDGRID"> T  </i>
  </separator>
  <separator name="ionic" >
   <i type="int" name="NSW">     0</i>
   <i type="int" name="IBRION">    -1</i>
   <i type="int" name="ISIF">     2</i>
   <i name="PSTRESS">      0.00000000</i>
   <i name="EDIFFG">      0.00000010</i>
   <i type="int" name="NFREE">     0</i>
   <i name="POTIM">      0.50000000</i>
   <i name="SMASS">     -3.00000000</i>
   <i name="SCALEE">      1.00000000</i>
  </separator>
  <separator name="ionic md" >
   <i name="TEBEG">      0.00010000</i>
   <i name="TEEND">      0.00010000</i>
   <i type="int" name="NBLOCK">     1</i>
   <i type="int" name="KBLOCK">     1</i>
   <i type="int" name="NPACO">   256</i>
   <i name="APACO">     16.00000000</i>
  </separator>
  <separator name="symmetry" >
   <i type="int" name="ISYM">     2</i>
   <i name="SYMPREC">      0.00001000</i>
  </separator>
  <separator name="dos" >
   <i type="logical" name="LORBIT"> F  </i>
   <v name="RWIGS">     -1.00000000</v>
   <i type="int" name="NEDOS">   301</i>
   <i name="EMIN">     10.00000000</i>
   <i name="EMAX">    -10.00000000</i>
   <i name="EFERMI">      0.00000000</i>
  </separator>
  <separator name="writing" >
   <i type="int" name="NWRITE">     2</i>
   <i type="logical" name="LWAVE"> F  </i>
   <i type="logical" name="LCHARG"> F  </i>
   <i type="logical" name="LPARD"> F  </i>
   <i type="logical" name="LVTOT"> F  </i>
   <i type="logical" name="LVHAR"> F  </i>
   <i type="logical" name="LELF"> F  </i>
   <i type="logical" name="LOPTICS"> F  </i>
   <v name="STM">      0.00000000      0.00000000      0.00000000      0.00000000      0.00000000      0.00000000      0.00000000</v>
  </separator>
  <separator name="performance" >
   <i type="int" name="NPAR">     4</i>
   <i type="int" name="NSIM">     4</i>
   <i type="int" name="NBLK">    -1</i>
   <i type="logical" name="LPLANE"> T  </i>
   <i type="logical" name="LSCALAPACK"> T  </i>
   <i type="logical" name="LSCAAWARE"> F  </i>
   <i type="logical" name="LSCALU"> F  </i>
   <i type="logical" name="LASYNC"> F  </i>
   <i type="logical" name="LORBITALREAL"> F  </i>
  </separator>
  <separator name="miscellaneous" >
   <i type="int" name="IDIOT">     3</i>
   <i type="logical" name="LMUSIC"> F  </i>
   <v name="POMASS">     28.08500000</v>
   <v name="DARWINR">      0.00000000</v>
   <v name="DARWINV">      1.00000000</v>
   <i type="logical" name="LCORR"> T  </i>
  </separator>
  <i type="logical" name="GGA_COMPAT"> T  </i>
  <i type="logical" name="LBERRY"> F  </i>
  <i type="int" name="ICORELEVEL">     0</i>
  <i type="logical" name="LDAU"> F  </i>
  <i type="int" name="I_CONSTRAINED_M">     0</i>
  <separator name="electronic exchange-correlation" >
   <i type="string" name="GGA">--</i>
   <i type="int" name="VOSKOWN">     0</i>
   <i type="logical" name="LHFCALC"> F  </i>
   <i type="string" name="PRECFOCK"></i>
   <i type="logical" name="LSYMGRAD"> F  </i>
   <i type="logical" name="LHFONE"> F  </i>
   <i type="logical" name="LRHFCALC"> F  </i>
   <i type="logical" name="LTHOMAS"> F  </i>
   <i type="logical" name="LMODELHF"> F  </i>
   <i name="ENCUT4O">     -1.00000000</i>
   <i type="int" name="EXXOEP">     0</i>
   <i type="int" name="FOURORBIT">     0</i>
   <i name="AEXX">      0.00000000</i>
   <i name="HFALPHA">      0.00000000</i>
   <i name="MCALPHA">      0.00000000</i>
   <i name="ALDAX">      1.00000000</i>
   <i name="AGGAX">      1.00000000</i>
   <i name="ALDAC">      1.00000000</i>
   <i name="AGGAC">      1.00000000</i>
   <i type="int" name="NKREDX">     1</i>
   <i type="int" name="NKREDY">     1</i>
   <i type="int" name="NKREDZ">     1</i>
   <i type="logical" name="SHIFTRED"> F  </i>
   <i type="logical" name="ODDONLY"> F  </i>
   <i type="logical" name="EVENONLY"> F  </i>
   <i type="int" name="LMAXFOCK">     0</i>
   <i type="int" name="NMAXFOCKAE">     0</i>
   <i type="logical" name="LFOCKAEDFT"> F  </i>
   <i name="HFSCREEN">      0.00000000</i>
   <i name="HFSCREENC">      0.00000000</i>
   <i type="int" name="NBANDSGWLOW">     0</i>
  </separator>
  <separator name="vdW DFT" >
   <i type="logical" name="LUSE_VDW"> F  </i>
   <i name="Zab_VDW">     -0.84910000</i>
   <i name="PARAM1">      0.12340000</i>
   <i name="PARAM2">      1.00000000</i>
   <i name="PARAM3">      0.00000000</i>
  </separator>
  <separator name="model GW" >
   <i type="int" name="MODEL_GW">     0</i>
   <i name="MODEL_EPS0">     12.24990743</i>
   <i name="MODEL_ALPHA">      1.00000000</i>
  </separator>
  <separator name="linear response parameters" >
   <i type="logical" name="LEPSILON"> F  </i>
   <i type="logical" name="LRPA"> F  </i>
   <i type="logical" name="LNABLA"> F  </i>
   <i type="logical" name="LVEL"> F  </i>
   <i type="int" name="KINTER">     0</i>
   <i name="CSHIFT">      0.10000000</i>
   <i name="OMEGAMAX">     -1.00000000</i>
   <i name="DEG_THRESHOLD">      0.00200000</i>
  </separator>
  <separator name="orbital magnetization" >
   <i type="logical" name="NUCIND"> F  </i>
   <v name="MAGPOS">      0.00000000      0.00000000      0.00000000</v>
   <i type="logical" name="LNICSALL"> T  </i>
   <i type="logical" name="ORBITALMAG"> F  </i>
   <i type="logical" name="LMAGBLOCH"> F  </i>
   <i type="logical" name="LCHIMAG"> F  </i>
   <i type="logical" name="LGAUGE"> T  </i>
   <i type="int" name="MAGATOM">     0</i>
   <v name="MAGDIPOL">      0.00000000      0.00000000      0.00000000</v>
   <v name="AVECCONST">      0.00000000      0.00000000      0.00000000</v>
  </separator>
  <separator name="response functions" >
   <i type="logical" name="LADDER"> F  </i>
   <i type="logical" name="LFXC"> F  </i>
   <i type="logical" name="LHARTREE"> T  </i>
   <i type="int" name="IBSE">     0</i>
   <v type="int" name="KPOINT">    -1     0     0     0</v>
   <i type="logical" name="LTCTE"> F  </i>
   <i type="logical" name="LTETE"> F  </i>
   <i type="logical" name="LTRIPLET"> F  </i>
   <i type="logical" name="LFXCEPS"> F  </i>
   <i type="logical" name="LFXHEG"> F  </i>
   <i type="int" name="NATURALO">     0</i>
   <i type="logical" name="L2ORDER"> F  </i>
   <i type="logical" name="LUSEW"> F  </i>
   <i name="ENCUTGW">     -2.00000000</i>
   <i name="ENCUTGWSOFT">     -2.00000000</i>
   <i name="ENCUTLF">     -1.00000000</i>
   <i type="int" name="LMAXMP2">    -1</i>
   <i name="SCISSOR">      0.00000000</i>
   <i type="int" name="NOMEGA">     0</i>
   <i type="int" name="NOMEGAR">     0</i>
   <i type="int" name="NBANDSGW">    -1</i>
   <i type="int" name="NBANDSO">    -1</i>
   <i type="int" name="NBANDSV">    -1</i>
   <i type="int" name="NELM">     1</i>
   <i type="int" name="NELMHF">     1</i>
   <i type="int" name="DIM">     3</i>
   <i type="int" name="ANTIRES">     0</i>
   <i name="OMEGAMAX">    -30.00000000</i>
   <i name="OMEGAMIN">    -30.00000000</i>
   <i name="OMEGATL">   -200.00000000</i>
   <i type="int" name="OMEGAGRID">     0</i>
   <i name="CSHIFT">     -0.10000000</i>
   <i type="logical" name="SELFENERGY"> F  </i>
   <i type="logical" name="LSPECTRAL"> F  </i>
   <i type="logical" name="LSPECTRALGW"> F  </i>
   <i type="logical" name="LSINGLES"> F  </i>
   <i type="logical" name="LFERMIGW"> F  </i>
   <i type="logical" name="ODDONLYGW"> F  </i>
   <i type="logical" name="EVENONLYGW"> F  </i>
   <i type="int" name="NKREDLFX">     1</i>
   <i type="int" name="NKREDLFY">     1</i>
   <i type="int" name="NKREDLFZ">     1</i>
   <i type="int" name="MAXMEM">  1800</i>
   <i type="int" name="TELESCOPE">     0</i>
   <i type="int" name="TAUPAR">     1</i>
   <i type="int" name="OMEGAPAR">    -1</i>
   <i name="LAMBDA">      1.00000000</i>
  </separator>
  <separator name="External order field" >
   <i name="OFIELD_KAPPA">      0.00000000</i>
   <v name="OFIELD_K">      0.00000000      0.00000000      0.00000000</v>
   <i name="OFIELD_Q6_NEAR">      0.00000000</i>
   <i name="OFIELD_Q6_FAR">      0.00000000</i>
   <i name="OFIELD_A">      0.00000000</i>
  </separator>
 </parameters>
 <atominfo>
  <atoms>      64 </atoms>
  <types>       1 </types>
  <array name="atoms" >
   <dimension dim="1">ion</dimension>
   <field type="string">element</field>
   <field type="int">atomtype</field>
   <set>
    <rc><c>Si</c><c>   1</c></rc>
    <rc><c>Si</c><c>   1</c></rc>
    <rc><c>Si</c><c>   1</c></rc>
    <rc><c>Si</c><c>   1</c></rc>
    <rc><c>Si</c><c>   1</c></rc>
    <rc><c>Si</c><c>   1</c></rc>
    <rc><c>Si</c><c>   1</c></rc>
    <rc><c>Si</c><c>   1</c></rc>
    <rc><c>Si</c><c>   1</c></rc>
    <rc><c>Si</c><c>   1</c></rc>
    <rc><c>Si</c><c>   1</c></rc>
    <rc><c>Si</c><c>   1</c></rc>
    <rc><c>Si</c><c>   1</c></rc>
    <rc><c>Si</c><c>   1</c></rc>
    <rc><c>Si</c><c>   1</c></rc>
    <rc><c>Si</c><c>   1</c></rc>
    <rc><c>Si</c><c>   1</c></rc>
    <rc><c>Si</c><c>   1</c></rc>
    <rc><c>Si</c><c>   1</c></rc>
    <rc><c>Si</c><c>   1</c></rc>
    <rc><c>Si</c><c>   1</c></rc>
    <rc><c>Si</c><c>   1</c></rc>
    <rc><c>Si</c><c>   1</c></rc>
    <rc><c>Si</c><c>   1</c></rc>
    <rc><c>Si</c><c>   1</c></rc>
    <rc><c>Si</c><c>   1</c></rc>
    <rc><c>Si</c><c>   1</c></rc>
    <rc><c>Si</c><c>   1</c></rc>
    <rc><c>Si</c><c>   1</c></rc>
    <rc><c>Si</c><c>   1</c></rc>
    <rc><c>Si</c><c>   1</c></rc>
    <rc><c>Si</c><c>   1</c></rc>
    <rc><c>Si</c><c>   1</c></rc>
    <rc><c>Si</c><c>   1</c></rc>
    <rc><c>Si</c><c>   1</c></rc>
    <rc><c>Si</c><c>   1</c></rc>
    <rc><c>Si</c><c>   1</c></rc>
    <rc><c>Si</c><c>   1</c></rc>
    <rc><c>Si</c><c>   1</c></rc>
    <rc><c>Si</c><c>   1</c></rc>
    <rc><c>Si</c><c>   1</c></rc>
    <rc><c>Si</c><c>   1</c></rc>
    <rc><c>Si</c><c>   1</c></rc>
    <rc><c>Si</c><c>   1</c></rc>
    <rc><c>Si</c><c>   1</c></rc>
    <rc><c>Si</c><c>   1</c></rc>
    <rc><c>Si</c><c>   1</c></rc>
    <rc><c>Si</c><c>   1</c></rc>
    <rc><c>Si</c><c>   1</c></rc>
    <rc><c>Si</c><c>   1</c></rc>
    <rc><c>Si</c><c>   1</c></rc>
    <rc><c>Si</c><c>   1</c></rc>
    <rc><c>Si</c><c>   1</c></rc>
    <rc><c>Si</c><c>   1</c></rc>
    <rc><c>Si</c><c>   1</c></rc>
    <rc><c>Si</c><c>   1</c></rc>
    <rc><c>Si</c><c>   1</c></rc>
    <rc><c>Si</c><c>   1</c></rc>
    <rc><c>Si</c><c>   1</c></rc>
    <rc><c>Si</c><c>   1</c></rc>
    <rc><c>Si</c><c>   1</c></rc>
    <rc><c>Si</c><c>   1</c></rc>
    <rc><c>Si</c><c>   1</c></rc>
    <rc><c>Si</c><c>   1</c></rc>
   </set>
  </array>
  <array name="atomtypes" >
   <dimension dim="1">type</dimension>
   <field type="int">atomspertype</field>
   <field type="string">element</field>
   <field>mass</field>
   <field>valence</field>
   <field type="string">pseudopotential</field>
   <set>
    <rc><c>  64</c><c>Si</c><c>     28.08500000</c><c>      4.00000000</c><c>  PAW_PBE Si 05Jan2001                  </c></rc>
   </set>
  </array>
 </atominfo>
 <structure name="initialpos" >
  <crystal>
   <varray name="basis" >
    <v>      10.93252578       0.00000000       0.00000000 </v>
    <v>       0.00000000      10.93252578       0.00000000 </v>
    <v>       0.00000000       0.00000000      10.93252578 </v>
   </varray>
   <i name="volume">   1306.65679237 </i>
   <varray name="rec_basis" >
    <v>       0.09147017       0.00000000       0.00000000 </v>
    <v>       0.00000000       0.09147017       0.00000000 </v>
    <v>       0.00000000       0.00000000       0.09147017 </v>
   </varray>
  </crystal>
  <varray name="positions" >
   <v>       0.44024411       0.43750000       0.43750000 </v>
   <v>       0.93750000       0.43750000       0.43750000 </v>
   <v>       0.43750000       0.93750000       0.43750000 </v>
   <v>       0.93750000       0.93750000       0.43750000 </v>
   <v>       0.43750000       0.43750000       0.93750000 </v>
   <v>       0.93750000       0.43750000       0.93750000 </v>
   <v>       0.43750000       0.93750000       0.93750000 </v>
   <v>       0.93750000       0.93750000       0.93750000 </v>
   <v>       0.43750000       0.18750000       0.18750000 </v>
   <v>       0.93750000       0.18750000       0.18750000 </v>
   <v>       0.43750000       0.68750000       0.18750000 </v>
   <v>       0.93750000       0.68750000       0.18750000 </v>
   <v>       0.43750000       0.18750000       0.68750000 </v>
   <v>       0.93750000       0.18750000       0.68750000 </v>
   <v>       0.43750000       0.68750000       0.68750000 </v>
   <v>       0.93750000       0.68750000       0.68750000 </v>
   <v>       0.18750000       0.43750000       0.18750000 </v>
   <v>       0.68750000       0.43750000       0.18750000 </v>
   <v>       0.18750000       0.93750000       0.18750000 </v>
   <v>       0.68750000       0.93750000       0.18750000 </v>
   <v>       0.18750000       0.43750000       0.68750000 </v>
   <v>       0.68750000       0.43750000       0.68750000 </v>
   <v>       0.18750000       0.93750000       0.68750000 </v>
   <v>       0.68750000       0.93750000       0.68750000 </v>
   <v>       0.18750000       0.18750000       0.43750000 </v>
   <v>       0.68750000       0.18750000       0.43750000 </v>
   <v>       0.18750000       0.68750000       0.43750000 </v>
   <v>       0.68750000       0.68750000       0.43750000 </v>
   <v>       0.18750000       0.18750000       0.93750000 </v>
   <v>       0.68750000       0.18750000       0.93750000 </v>
   <v>       0.18750000       0.68750000       0.93750000 </v>
   <v>       0.68750000       0.68750000       0.93750000 </v>
   <v>       0.06250000       0.06250000       0.06250000 </v>
   <v>       0.56250000       0.06250000       0.06250000 </v>
   <v>       0.06250000       0.56250000       0.06250000 </v>
   <v>       0.56250000       0.56250000       0.06250000 </v>
   <v>       0.06250000       0.06250000       0.56250000 </v>
   <v>       0.56250000       0.06250000       0.56250000 </v>
   <v>       0.06250000       0.56250000       0.56250000 </v>
   <v>       0.56250000       0.56250000       0.56250000 </v>
   <v>       0.06250000       0.31250000       0.31250000 </v>
   <v>       0.56250000       0.31250000       0.31250000 </v>
   <v>       0.06250000       0.81250000       0.31250000 </v>
   <v>       0.56250000       0.81250000       0.31250000 </v>
   <v>       0.06250000       0.31250000       0.81250000 </v>
   <v>       0.56250000       0.31250000       0.81250000 </v>
   <v>       0.06250000       0.81250000       0.81250000 </v>
   <v>       0.56250000       0.81250000       0.81250000 </v>
   <v>       0.31250000       0.06250000       0.31250000 </v>
   <v>       0.81250000       0.06250000       0.31250000 </v>
   <v>       0.30975589       0.56250000       0.31250000 </v>
   <v>       0.81250000       0.56250000       0.31250000 </v>
   <v>       0.31250000       0.06250000       0.81250000 </v>
   <v>       0.81250000       0.06250000       0.81250000 </v>
   <v>       0.31250000       0.56250000       0.81250000 </v>
   <v>       0.81250000       0.56250000       0.81250000 </v>
   <v>       0.31250000       0.31250000       0.06250000 </v>
   <v>       0.81250000       0.31250000       0.06250000 </v>
   <v>       0.31250000       0.81250000       0.06250000 </v>
   <v>       0.81250000       0.81250000       0.06250000 </v>
   <v>       0.31250000       0.31250000       0.56250000 </v>
   <v>       0.81250000       0.31250000       0.56250000 </v>
   <v>       0.31250000       0.81250000       0.56250000 </v>
   <v>       0.81250000       0.81250000       0.56250000 </v>
  </varray>
 </structure>
 <calculation>
  <scstep>
   <time name="dav">    4.14    4.15</time>
   <time name="total">    4.40    4.41</time>
   <energy>
    <i name="alphaZ">    105.52440745 </i>
    <i name="ewald">  -7265.47012533 </i>
    <i name="hartreedc">   -361.70931074 </i>
    <i name="XCdc">   -597.75708760 </i>
    <i name="pawpsdc">   5639.92317535 </i>
    <i name="pawaedc">  -4513.95313856 </i>
    <i name="eentropy">     -0.00798721 </i>
    <i name="bandstr">    858.77758442 </i>
    <i name="atom">   6596.14994790 </i>
    <i name="e_fr_energy">    461.47746570 </i>
    <i name="e_wo_entrp">    461.48545291 </i>
    <i name="e_0_energy">    461.48145930 </i>
   </energy>
  </scstep>
  <scstep>
   <time name="dav">    4.68    4.69</time>
   <time name="total">    4.68    4.70</time>
   <energy>
    <i name="e_fr_energy">   -298.27647335 </i>
    <i name="e_wo_entrp">   -298.27647335 </i>
    <i name="e_0_energy">   -298.27647335 </i>
   </energy>
  </scstep>
  <scstep>
   <time name="dav">    4.79    4.80</time>
   <time name="total">    4.79    4.81</time>
   <energy>
    <i name="e_fr_energy">   -350.94454166 </i>
    <i name="e_wo_entrp">   -350.94454166 </i>
    <i name="e_0_energy">   -350.94454166 </i>
   </energy>
  </scstep>
  <scstep>
   <time name="dav">    4.77    4.78</time>
   <time name="total">    4.77    4.78</time>
   <energy>
    <i name="e_fr_energy">   -352.26221372 </i>
    <i name="e_wo_entrp">   -352.26221372 </i>
    <i name="e_0_energy">   -352.26221372 </i>
   </energy>
  </scstep>
  <scstep>
   <time name="dav">    4.76    4.77</time>
   <time name="total">    5.06    5.07</time>
   <energy>
    <i name="e_fr_energy">   -352.31024389 </i>
    <i name="e_wo_entrp">   -352.31024389 </i>
    <i name="e_0_energy">   -352.31024389 </i>
   </energy>
  </scstep>
  <scstep>
   <time name="dav">    4.60    4.61</time>
   <time name="total">    5.16    5.21</time>
   <energy>
    <i name="e_fr_energy">   -348.58202827 </i>
    <i name="e_wo_entrp">   -348.58202827 </i>
    <i name="e_0_energy">   -348.58202827 </i>
   </energy>
  </scstep>
  <scstep>
   <time name="dav">    4.52    4.53</time>
   <time name="total">    5.08    5.10</time>
   <energy>
    <i name="e_fr_energy">   -346.86923412 </i>
    <i name="e_wo_entrp">   -346.86923412 </i>
    <i name="e_0_energy">   -346.86923412 </i>
   </energy>
  </scstep>
  <scstep>
   <time name="dav">    4.69    4.70</time>
   <time name="total">    5.25    5.27</time>
   <energy>
    <i name="e_fr_energy">   -346.89546767 </i>
    <i name="e_wo_entrp">   -346.89546767 </i>
    <i name="e_0_energy">   -346.89546767 </i>
   </energy>
  </scstep>
  <scstep>
   <time name="dav">    4.84    4.85</time>
   <time name="total">    5.40    5.42</time>
   <energy>
    <i name="e_fr_energy">   -346.90211834 </i>
    <i name="e_wo_entrp">   -346.90211834 </i>
    <i name="e_0_energy">   -346.90211834 </i>
   </energy>
  </scstep>
  <scstep>
   <time name="dav">    4.48    4.49</time>
   <time name="total">    5.03    5.12</time>
   <energy>
    <i name="e_fr_energy">   -346.90416892 </i>
    <i name="e_wo_entrp">   -346.90416892 </i>
    <i name="e_0_energy">   -346.90416892 </i>
   </energy>
  </scstep>
  <scstep>
   <time name="dav">    4.68    4.69</time>
   <time name="total">    5.24    5.28</time>
   <energy>
    <i name="e_fr_energy">   -346.90415060 </i>
    <i name="e_wo_entrp">   -346.90415060 </i>
    <i name="e_0_energy">   -346.90415060 </i>
   </energy>
  </scstep>
  <scstep>
   <time name="dav">    4.77    4.79</time>
   <time name="total">    5.33    5.36</time>
   <energy>
    <i name="e_fr_energy">   -346.90416499 </i>
    <i name="e_wo_entrp">   -346.90416499 </i>
    <i name="e_0_energy">   -346.90416499 </i>
   </energy>
  </scstep>
  <scstep>
   <time name="dav">    4.63    4.64</time>
   <time name="total">    5.20    5.21</time>
   <energy>
    <i name="e_fr_energy">   -346.90416544 </i>
    <i name="e_wo_entrp">   -346.90416544 </i>
    <i name="e_0_energy">   -346.90416544 </i>
   </energy>
  </scstep>
  <scstep>
   <time name="dav">    4.73    4.74</time>
   <time name="total">    5.29    5.31</time>
   <energy>
    <i name="e_fr_energy">   -346.90416594 </i>
    <i name="e_wo_entrp">   -346.90416594 </i>
    <i name="e_0_energy">   -346.90416594 </i>
   </energy>
  </scstep>
  <scstep>
   <time name="dav">    4.09    4.09</time>
   <time name="total">    4.65    4.66</time>
   <energy>
    <i name="e_fr_energy">   -346.90416569 </i>
    <i name="e_wo_entrp">   -346.90416569 </i>
    <i name="e_0_energy">   -346.90416569 </i>
   </energy>
  </scstep>
  <scstep>
   <time name="dav">    3.26    3.27</time>
   <time name="total">    3.82    3.83</time>
   <energy>
    <i name="e_fr_energy">   -346.90416576 </i>
    <i name="e_wo_entrp">   -346.90416576 </i>
    <i name="e_0_energy">   -346.90416576 </i>
   </energy>
  </scstep>
  <scstep>
   <time name="dav">    3.19    3.19</time>
   <time name="total">    3.75    3.76</time>
   <energy>
    <i name="e_fr_energy">   -346.90416575 </i>
    <i name="e_wo_entrp">   -346.90416575 </i>
    <i name="e_0_energy">   -346.90416575 </i>
   </energy>
  </scstep>
  <scstep>
   <time name="dav">    3.20    3.20</time>
   <time name="total">    3.76    3.76</time>
   <energy>
    <i name="e_fr_energy">   -346.90416576 </i>
    <i name="e_wo_entrp">   -346.90416576 </i>
    <i name="e_0_energy">   -346.90416576 </i>
   </energy>
  </scstep>
  <scstep>
   <time name="dav">    3.20    3.20</time>
   <time name="total">    3.46    3.47</time>
   <energy>
    <i name="alphaZ">    105.52440745 </i>
    <i name="ewald">  -7265.47012533 </i>
    <i name="hartreedc">   -485.13954097 </i>
    <i name="XCdc">   -577.61228795 </i>
    <i name="pawpsdc">  27883.61323070 </i>
    <i name="pawaedc"> -26764.33127894 </i>
    <i name="eentropy">      0.00000000 </i>
    <i name="bandstr">    160.36148137 </i>
    <i name="atom">   6596.14994790 </i>
    <i name="e_fr_energy">   -346.90416577 </i>
    <i name="e_wo_entrp">   -346.90416577 </i>
    <i name="e_0_energy">   -346.90416577 </i>
   </energy>
  </scstep>
  <structure>
   <crystal>
    <varray name="basis" >
     <v>      10.93252578       0.00000000       0.00000000 </v>
     <v>       0.00000000      10.93252578       0.00000000 </v>
     <v>       0.00000000       0.00000000      10.93252578 </v>
    </varray>
    <i name="volume">   1306.65679237 </i>
    <varray name="rec_basis" >
     <v>       0.09147017       0.00000000       0.00000000 </v>
     <v>       0.00000000       0.09147017       0.00000000 </v>
     <v>       0.00000000       0.00000000       0.09147017 </v>
    </varray>
   </crystal>
   <varray name="positions" >
    <v>       0.44024411       0.43750000       0.43750000 </v>
    <v>       0.93750000       0.43750000       0.43750000 </v>
    <v>       0.43750000       0.93750000       0.43750000 </v>
    <v>       0.93750000       0.93750000       0.43750000 </v>
    <v>       0.43750000       0.43750000       0.93750000 </v>
    <v>       0.93750000       0.43750000       0.93750000 </v>
    <v>       0.43750000       0.93750000       0.93750000 </v>
    <v>       0.93750000       0.93750000       0.93750000 </v>
    <v>       0.43750000       0.18750000       0.18750000 </v>
    <v>       0.93750000       0.18750000       0.18750000 </v>
    <v>       0.43750000       0.68750000       0.18750000 </v>
    <v>       0.93750000       0.68750000       0.18750000 </v>
    <v>       0.43750000       0.18750000       0.68750000 </v>
    <v>       0.93750000       0.18750000       0.68750000 </v>
    <v>       0.43750000       0.68750000       0.68750000 </v>
    <v>       0.93750000       0.68750000       0.68750000 </v>
    <v>       0.18750000       0.43750000       0.18750000 </v>
    <v>       0.68750000       0.43750000       0.18750000 </v>
    <v>       0.18750000       0.93750000       0.18750000 </v>
    <v>       0.68750000       0.93750000       0.18750000 </v>
    <v>       0.18750000       0.43750000       0.68750000 </v>
    <v>       0.68750000       0.43750000       0.68750000 </v>
    <v>       0.18750000       0.93750000       0.68750000 </v>
    <v>       0.68750000       0.93750000       0.68750000 </v>
    <v>       0.18750000       0.18750000       0.43750000 </v>
    <v>       0.68750000       0.18750000       0.43750000 </v>
    <v>       0.18750000       0.68750000       0.43750000 </v>
    <v>       0.68750000       0.68750000       0.43750000 </v>
    <v>       0.18750000       0.18750000       0.93750000 </v>
    <v>       0.68750000       0.18750000       0.93750000 </v>
    <v>       0.18750000       0.68750000       0.93750000 </v>
    <v>       0.68750000       0.68750000       0.93750000 </v>
    <v>       0.06250000       0.06250000       0.06250000 </v>
    <v>       0.56250000       0.06250000       0.06250000 </v>
    <v>       0.06250000       0.56250000       0.06250000 </v>
    <v>       0.56250000       0.56250000       0.06250000 </v>
    <v>       0.06250000       0.06250000       0.56250000 </v>
    <v>       0.56250000       0.06250000       0.56250000 </v>
    <v>       0.06250000       0.56250000       0.56250000 </v>
    <v>       0.56250000       0.56250000       0.56250000 </v>
    <v>       0.06250000       0.31250000       0.31250000 </v>
    <v>       0.56250000       0.31250000       0.31250000 </v>
    <v>       0.06250000       0.81250000       0.31250000 </v>
    <v>       0.56250000       0.81250000       0.31250000 </v>
    <v>       0.06250000       0.31250000       0.81250000 </v>
    <v>       0.56250000       0.31250000       0.81250000 </v>
    <v>       0.06250000       0.81250000       0.81250000 </v>
    <v>       0.56250000       0.81250000       0.81250000 </v>
    <v>       0.31250000       0.06250000       0.31250000 </v>
    <v>       0.81250000       0.06250000       0.31250000 </v>
    <v>       0.30975589       0.56250000       0.31250000 </v>
    <v>       0.81250000       0.56250000       0.31250000 </v>
    <v>       0.31250000       0.06250000       0.81250000 </v>
    <v>       0.81250000       0.06250000       0.81250000 </v>
    <v>       0.31250000       0.56250000       0.81250000 </v>
    <v>       0.81250000       0.56250000       0.81250000 </v>
    <v>       0.31250000       0.31250000       0.06250000 </v>
    <v>       0.81250000       0.31250000       0.06250000 </v>
    <v>       0.31250000       0.81250000       0.06250000 </v>
    <v>       0.81250000       0.81250000       0.06250000 </v>
    <v>       0.31250000       0.31250000       0.56250000 </v>
    <v>       0.81250000       0.31250000       0.56250000 </v>
    <v>       0.31250000       0.81250000       0.56250000 </v>
    <v>       0.81250000       0.81250000       0.56250000 </v>
   </varray>
  </structure>
  <varray name="forces" >
   <v>      -0.47721492       0.05585907      -0.05585907 </v>
   <v>       0.00082780       0.00089974      -0.00089974 </v>
   <v>       0.00274381       0.00088608      -0.00124102 </v>
   <v>      -0.00083886       0.00064380      -0.00073622 </v>
   <v>       0.00274381       0.00124102      -0.00088608 </v>
   <v>      -0.00083886       0.00073622      -0.00064380 </v>
   <v>      -0.01764327       0.00067097      -0.00067097 </v>
   <v>       0.00111033       0.00074467      -0.00074467 </v>
   <v>      -0.01145453       0.00189491       0.00403167 </v>
   <v>      -0.00069672      -0.00042226       0.00094120 </v>
   <v>      -0.10571423      -0.05837010       0.05837010 </v>
   <v>       0.00028601      -0.00066941       0.00066941 </v>
   <v>      -0.01886918      -0.00332063       0.00332063 </v>
   <v>       0.00053558      -0.00097646       0.00097646 </v>
   <v>      -0.01145453      -0.00403167      -0.00189491 </v>
   <v>      -0.00069672      -0.00094120       0.00042226 </v>
   <v>      -0.09014599      -0.06866702      -0.06051280 </v>
   <v>       0.00608645      -0.00368891      -0.00660249 </v>
   <v>       0.00249515      -0.00116802      -0.00305226 </v>
   <v>       0.00039746      -0.00083873       0.00117637 </v>
   <v>       0.00712153       0.00148845      -0.00647971 </v>
   <v>       0.00521890       0.00213773       0.00507263 </v>
   <v>      -0.00519943      -0.00045834       0.00117212 </v>
   <v>       0.00155575      -0.00052652      -0.00259658 </v>
   <v>       0.00712153       0.00647971      -0.00148845 </v>
   <v>       0.00521890      -0.00507263      -0.00213773 </v>
   <v>      -0.09014599       0.06051280       0.06866702 </v>
   <v>       0.00608645       0.00660249       0.00368891 </v>
   <v>      -0.00519943      -0.00117212       0.00045834 </v>
   <v>       0.00155575       0.00259658       0.00052652 </v>
   <v>       0.00249515       0.00305226       0.00116802 </v>
   <v>       0.00039746      -0.00117637       0.00083873 </v>
   <v>      -0.00155575       0.00052652       0.00259658 </v>
   <v>       0.00519943       0.00045834      -0.00117212 </v>
   <v>      -0.00521890      -0.00213773      -0.00507263 </v>
   <v>      -0.00712153      -0.00148845       0.00647971 </v>
   <v>      -0.00039746       0.00083873      -0.00117637 </v>
   <v>      -0.00249515       0.00116802       0.00305226 </v>
   <v>      -0.00608645       0.00368891       0.00660249 </v>
   <v>       0.09014599       0.06866702       0.06051280 </v>
   <v>      -0.00608645      -0.00660249      -0.00368891 </v>
   <v>       0.09014599      -0.06051280      -0.06866702 </v>
   <v>      -0.00521890       0.00507263       0.00213773 </v>
   <v>      -0.00712153      -0.00647971       0.00148845 </v>
   <v>      -0.00039746       0.00117637      -0.00083873 </v>
   <v>      -0.00249515      -0.00305226      -0.00116802 </v>
   <v>      -0.00155575      -0.00259658      -0.00052652 </v>
   <v>       0.00519943       0.00117212      -0.00045834 </v>
   <v>      -0.00274381      -0.00088608       0.00124102 </v>
   <v>       0.00083886      -0.00064380       0.00073622 </v>
   <v>       0.47721492      -0.05585907       0.05585907 </v>
   <v>      -0.00082780      -0.00089974       0.00089974 </v>
   <v>       0.01764327      -0.00067097       0.00067097 </v>
   <v>      -0.00111033      -0.00074467       0.00074467 </v>
   <v>      -0.00274381      -0.00124102       0.00088608 </v>
   <v>       0.00083886      -0.00073622       0.00064380 </v>
   <v>       0.01145453       0.00403167       0.00189491 </v>
   <v>       0.00069672       0.00094120      -0.00042226 </v>
   <v>       0.01886918       0.00332063      -0.00332063 </v>
   <v>      -0.00053558       0.00097646      -0.00097646 </v>
   <v>       0.10571423       0.05837010      -0.05837010 </v>
   <v>      -0.00028601       0.00066941      -0.00066941 </v>
   <v>       0.01145453      -0.00189491      -0.00403167 </v>
   <v>       0.00069672       0.00042226      -0.00094120 </v>
  </varray>
  <varray name="stress" >
   <v>      -0.01796425      -0.00497464       0.00497464 </v>
   <v>      -0.00497462       0.02819748       0.66120015 </v>
   <v>       0.00497462       0.66120015       0.02819748 </v>
  </varray>
  <energy>
   <i name="e_fr_energy">   -346.90416577 </i>
   <i name="e_wo_entrp">   -346.90416577 </i>
   <i name="e_0_energy">      0.00000000 </i>
  </energy>
  <time name="totalsc">  100.00  100.45</time>
  <eigenvalues>
   <array>
    <dimension dim="1">band</dimension>
    <dimension dim="2">kpoint</dimension>
    <dimension dim="3">spin</dimension>
    <field>eigene</field>
    <field>occ</field>
    <set>
     <set comment="spin 1">
      <set comment="kpoint 1">
       <r>   -5.9931    1.0000 </r>
       <r>   -5.4672    1.0000 </r>
       <r>   -5.4650    1.0000 </r>
       <r>   -5.4624    1.0000 </r>
       <r>   -4.9681    1.0000 </r>
       <r>   -4.9654    1.0000 </r>
       <r>   -4.9630    1.0000 </r>
       <r>   -4.5314    1.0000 </r>
       <r>   -4.4348    1.0000 </r>
       <r>   -4.4319    1.0000 </r>
       <r>   -4.4296    1.0000 </r>
       <r>   -4.0257    1.0000 </r>
       <r>   -4.0190    1.0000 </r>
       <r>   -4.0166    1.0000 </r>
       <r>   -4.0162    1.0000 </r>
       <r>   -4.0121    1.0000 </r>
       <r>   -4.0120    1.0000 </r>
       <r>   -3.8268    1.0000 </r>
       <r>   -3.8263    1.0000 </r>
       <r>   -3.8220    1.0000 </r>
       <r>   -3.3307    1.0000 </r>
       <r>   -3.3267    1.0000 </r>
       <r>   -3.3226    1.0000 </r>
       <r>   -2.9627    1.0000 </r>
       <r>   -2.9601    1.0000 </r>
       <r>   -2.9558    1.0000 </r>
       <r>   -2.7996    1.0000 </r>
       <r>   -2.7928    1.0000 </r>
       <r>   -2.7911    1.0000 </r>
       <r>   -2.7910    1.0000 </r>
       <r>   -2.7865    1.0000 </r>
       <r>   -2.7858    1.0000 </r>
       <r>   -1.2591    1.0000 </r>
       <r>   -1.2496    1.0000 </r>
       <r>   -1.2487    1.0000 </r>
       <r>   -1.2481    1.0000 </r>
       <r>   -1.2435    1.0000 </r>
       <r>   -1.2420    1.0000 </r>
       <r>   -1.1547    1.0000 </r>
       <r>   -1.1498    1.0000 </r>
       <r>   -1.1466    1.0000 </r>
       <r>   -1.0373    1.0000 </r>
       <r>   -1.0279    1.0000 </r>
       <r>   -1.0274    1.0000 </r>
       <r>   -0.9580    1.0000 </r>
       <r>   -0.9483    1.0000 </r>
       <r>   -0.9458    1.0000 </r>
       <r>   -0.2481    1.0000 </r>
       <r>   -0.1686    1.0000 </r>
       <r>   -0.1610    1.0000 </r>
       <r>   -0.1605    1.0000 </r>
       <r>   -0.1596    1.0000 </r>
       <r>   -0.1523    1.0000 </r>
       <r>   -0.1499    1.0000 </r>
       <r>    0.7058    1.0000 </r>
       <r>    0.7146    1.0000 </r>
       <r>    0.7155    1.0000 </r>
       <r>    1.0417    1.0000 </r>
       <r>    1.0493    1.0000 </r>
       <r>    1.0502    1.0000 </r>
       <r>    1.6530    1.0000 </r>
       <r>    1.6544    1.0000 </r>
       <r>    1.6561    1.0000 </r>
       <r>    1.6570    1.0000 </r>
       <r>    1.6595    1.0000 </r>
       <r>    1.6617    1.0000 </r>
       <r>    1.7137    1.0000 </r>
       <r>    1.7183    1.0000 </r>
       <r>    1.7199    1.0000 </r>
       <r>    2.2632    1.0000 </r>
       <r>    2.2667    1.0000 </r>
       <r>    2.2678    1.0000 </r>
       <r>    2.3664    1.0000 </r>
       <r>    2.3682    1.0000 </r>
       <r>    2.3707    1.0000 </r>
       <r>    2.3712    1.0000 </r>
       <r>    2.3765    1.0000 </r>
       <r>    2.3782    1.0000 </r>
       <r>    2.4230    1.0000 </r>
       <r>    2.4280    1.0000 </r>
       <r>    2.4315    1.0000 </r>
       <r>    2.7275    1.0000 </r>
       <r>    2.7339    1.0000 </r>
       <r>    2.7343    1.0000 </r>
       <r>    2.7353    1.0000 </r>
       <r>    2.7383    1.0000 </r>
       <r>    2.7395    1.0000 </r>
       <r>    2.9990    1.0000 </r>
       <r>    2.9995    1.0000 </r>
       <r>    3.0021    1.0000 </r>
       <r>    3.0093    1.0000 </r>
       <r>    3.0173    1.0000 </r>
       <r>    3.0181    1.0000 </r>
       <r>    3.3566    1.0000 </r>
       <r>    3.3603    1.0000 </r>
       <r>    3.3630    1.0000 </r>
       <r>    3.3797    1.0000 </r>
       <r>    3.3808    1.0000 </r>
       <r>    3.3839    1.0000 </r>
       <r>    3.4650    1.0000 </r>
       <r>    3.4666    1.0000 </r>
       <r>    3.4715    1.0000 </r>
       <r>    3.7324    1.0000 </r>
       <r>    3.7353    1.0000 </r>
       <r>    3.7392    1.0000 </r>
       <r>    3.7408    1.0000 </r>
       <r>    3.7415    1.0000 </r>
       <r>    3.7426    1.0000 </r>
       <r>    3.7791    1.0000 </r>
       <r>    3.7806    1.0000 </r>
       <r>    3.7864    1.0000 </r>
       <r>    4.0366    1.0000 </r>
       <r>    4.0982    1.0000 </r>
       <r>    4.0989    1.0000 </r>
       <r>    4.1034    1.0000 </r>
       <r>    4.3395    1.0000 </r>
       <r>    4.3412    1.0000 </r>
       <r>    4.3478    1.0000 </r>
       <r>    4.3955    1.0000 </r>
       <r>    4.4040    1.0000 </r>
       <r>    4.4048    1.0000 </r>
       <r>    4.5594    1.0000 </r>
       <r>    4.5688    1.0000 </r>
       <r>    4.8689    1.0000 </r>
       <r>    4.8702    1.0000 </r>
       <r>    4.8793    1.0000 </r>
       <r>    5.3466    1.0000 </r>
       <r>    5.3577    1.0000 </r>
       <r>    6.5635    0.0000 </r>
       <r>    6.5636    0.0000 </r>
       <r>    6.5677    0.0000 </r>
       <r>    7.0005    0.0000 </r>
       <r>    7.0055    0.0000 </r>
       <r>    7.0093    0.0000 </r>
       <r>    7.2351    0.0000 </r>
       <r>    7.4878    0.0000 </r>
       <r>    7.4927    0.0000 </r>
       <r>    7.4960    0.0000 </r>
       <r>    7.6144    0.0000 </r>
       <r>    7.6196    0.0000 </r>
       <r>    7.6205    0.0000 </r>
       <r>    7.7775    0.0000 </r>
       <r>    7.7808    0.0000 </r>
       <r>    7.7824    0.0000 </r>
       <r>    7.7998    0.0000 </r>
       <r>    7.8003    0.0000 </r>
       <r>    7.8056    0.0000 </r>
       <r>    8.0209    0.0000 </r>
       <r>    8.0268    0.0000 </r>
       <r>    8.0293    0.0000 </r>
       <r>    8.0306    0.0000 </r>
       <r>    8.0312    0.0000 </r>
       <r>    8.0338    0.0000 </r>
       <r>    8.0837    0.0000 </r>
       <r>    8.2923    0.0000 </r>
       <r>    8.2950    0.0000 </r>
       <r>    8.2982    0.0000 </r>
       <r>    8.4912    0.0000 </r>
       <r>    8.5001    0.0000 </r>
       <r>    8.5022    0.0000 </r>
       <r>    8.5046    0.0000 </r>
       <r>    8.5103    0.0000 </r>
       <r>    8.5201    0.0000 </r>
       <r>    8.5468    0.0000 </r>
      </set>
      <set comment="kpoint 2">
       <r>   -5.9932    1.0000 </r>
       <r>   -5.4661    1.0000 </r>
       <r>   -5.4649    1.0000 </r>
       <r>   -5.4630    1.0000 </r>
       <r>   -4.9670    1.0000 </r>
       <r>   -4.9662    1.0000 </r>
       <r>   -4.9635    1.0000 </r>
       <r>   -4.5334    1.0000 </r>
       <r>   -4.4340    1.0000 </r>
       <r>   -4.4327    1.0000 </r>
       <r>   -4.4316    1.0000 </r>
       <r>   -4.0202    1.0000 </r>
       <r>   -4.0175    1.0000 </r>
       <r>   -4.0174    1.0000 </r>
       <r>   -4.0174    1.0000 </r>
       <r>   -4.0143    1.0000 </r>
       <r>   -4.0095    1.0000 </r>
       <r>   -3.8272    1.0000 </r>
       <r>   -3.8263    1.0000 </r>
       <r>   -3.8176    1.0000 </r>
       <r>   -3.3331    1.0000 </r>
       <r>   -3.3302    1.0000 </r>
       <r>   -3.3272    1.0000 </r>
       <r>   -2.9618    1.0000 </r>
       <r>   -2.9595    1.0000 </r>
       <r>   -2.9552    1.0000 </r>
       <r>   -2.7956    1.0000 </r>
       <r>   -2.7939    1.0000 </r>
       <r>   -2.7924    1.0000 </r>
       <r>   -2.7920    1.0000 </r>
       <r>   -2.7895    1.0000 </r>
       <r>   -2.7801    1.0000 </r>
       <r>   -1.2565    1.0000 </r>
       <r>   -1.2543    1.0000 </r>
       <r>   -1.2508    1.0000 </r>
       <r>   -1.2495    1.0000 </r>
       <r>   -1.2480    1.0000 </r>
       <r>   -1.2373    1.0000 </r>
       <r>   -1.1547    1.0000 </r>
       <r>   -1.1511    1.0000 </r>
       <r>   -1.1500    1.0000 </r>
       <r>   -1.0399    1.0000 </r>
       <r>   -1.0346    1.0000 </r>
       <r>   -1.0286    1.0000 </r>
       <r>   -0.9490    1.0000 </r>
       <r>   -0.9463    1.0000 </r>
       <r>   -0.9323    1.0000 </r>
       <r>   -0.2411    1.0000 </r>
       <r>   -0.1690    1.0000 </r>
       <r>   -0.1670    1.0000 </r>
       <r>   -0.1620    1.0000 </r>
       <r>   -0.1608    1.0000 </r>
       <r>   -0.1584    1.0000 </r>
       <r>   -0.1519    1.0000 </r>
       <r>    0.7110    1.0000 </r>
       <r>    0.7143    1.0000 </r>
       <r>    0.7245    1.0000 </r>
       <r>    1.0434    1.0000 </r>
       <r>    1.0456    1.0000 </r>
       <r>    1.0521    1.0000 </r>
       <r>    1.6520    1.0000 </r>
       <r>    1.6542    1.0000 </r>
       <r>    1.6567    1.0000 </r>
       <r>    1.6575    1.0000 </r>
       <r>    1.6591    1.0000 </r>
       <r>    1.6609    1.0000 </r>
       <r>    1.7122    1.0000 </r>
       <r>    1.7137    1.0000 </r>
       <r>    1.7198    1.0000 </r>
       <r>    2.2680    1.0000 </r>
       <r>    2.2687    1.0000 </r>
       <r>    2.2718    1.0000 </r>
       <r>    2.3628    1.0000 </r>
       <r>    2.3654    1.0000 </r>
       <r>    2.3685    1.0000 </r>
       <r>    2.3710    1.0000 </r>
       <r>    2.3739    1.0000 </r>
       <r>    2.3749    1.0000 </r>
       <r>    2.4196    1.0000 </r>
       <r>    2.4229    1.0000 </r>
       <r>    2.4268    1.0000 </r>
       <r>    2.7324    1.0000 </r>
       <r>    2.7327    1.0000 </r>
       <r>    2.7339    1.0000 </r>
       <r>    2.7341    1.0000 </r>
       <r>    2.7347    1.0000 </r>
       <r>    2.7429    1.0000 </r>
       <r>    2.9950    1.0000 </r>
       <r>    2.9990    1.0000 </r>
       <r>    3.0004    1.0000 </r>
       <r>    3.0095    1.0000 </r>
       <r>    3.0101    1.0000 </r>
       <r>    3.0171    1.0000 </r>
       <r>    3.3607    1.0000 </r>
       <r>    3.3625    1.0000 </r>
       <r>    3.3672    1.0000 </r>
       <r>    3.3835    1.0000 </r>
       <r>    3.3863    1.0000 </r>
       <r>    3.3932    1.0000 </r>
       <r>    3.4611    1.0000 </r>
       <r>    3.4660    1.0000 </r>
       <r>    3.4693    1.0000 </r>
       <r>    3.7390    1.0000 </r>
       <r>    3.7404    1.0000 </r>
       <r>    3.7405    1.0000 </r>
       <r>    3.7435    1.0000 </r>
       <r>    3.7439    1.0000 </r>
       <r>    3.7553    1.0000 </r>
       <r>    3.7743    1.0000 </r>
       <r>    3.7799    1.0000 </r>
       <r>    3.7849    1.0000 </r>
       <r>    4.0443    1.0000 </r>
       <r>    4.0911    1.0000 </r>
       <r>    4.0973    1.0000 </r>
       <r>    4.0992    1.0000 </r>
       <r>    4.3342    1.0000 </r>
       <r>    4.3404    1.0000 </r>
       <r>    4.3424    1.0000 </r>
       <r>    4.4056    1.0000 </r>
       <r>    4.4067    1.0000 </r>
       <r>    4.4199    1.0000 </r>
       <r>    4.5568    1.0000 </r>
       <r>    4.5666    1.0000 </r>
       <r>    4.8608    1.0000 </r>
       <r>    4.8692    1.0000 </r>
       <r>    4.8725    1.0000 </r>
       <r>    5.3421    1.0000 </r>
       <r>    5.3528    1.0000 </r>
       <r>    6.5585    0.0000 </r>
       <r>    6.5599    0.0000 </r>
       <r>    6.5670    0.0000 </r>
       <r>    6.9975    0.0000 </r>
       <r>    7.0041    0.0000 </r>
       <r>    7.0094    0.0000 </r>
       <r>    7.2323    0.0000 </r>
       <r>    7.4844    0.0000 </r>
       <r>    7.4886    0.0000 </r>
       <r>    7.4946    0.0000 </r>
       <r>    7.6154    0.0000 </r>
       <r>    7.6235    0.0000 </r>
       <r>    7.6236    0.0000 </r>
       <r>    7.7770    0.0000 </r>
       <r>    7.7777    0.0000 </r>
       <r>    7.7825    0.0000 </r>
       <r>    7.7961    0.0000 </r>
       <r>    7.8016    0.0000 </r>
       <r>    7.8043    0.0000 </r>
       <r>    8.0245    0.0000 </r>
       <r>    8.0299    0.0000 </r>
       <r>    8.0305    0.0000 </r>
       <r>    8.0310    0.0000 </r>
       <r>    8.0364    0.0000 </r>
       <r>    8.0403    0.0000 </r>
       <r>    8.0794    0.0000 </r>
       <r>    8.2907    0.0000 </r>
       <r>    8.2954    0.0000 </r>
       <r>    8.2981    0.0000 </r>
       <r>    8.4938    0.0000 </r>
       <r>    8.5003    0.0000 </r>
       <r>    8.5024    0.0000 </r>
       <r>    8.5051    0.0000 </r>
       <r>    8.5159    0.0000 </r>
       <r>    8.5309    0.0000 </r>
       <r>    8.5435    0.0000 </r>
      </set>
      <set comment="kpoint 3">
       <r>   -5.9932    1.0000 </r>
       <r>   -5.4671    1.0000 </r>
       <r>   -5.4661    1.0000 </r>
       <r>   -5.4608    1.0000 </r>
       <r>   -4.9678    1.0000 </r>
       <r>   -4.9670    1.0000 </r>
       <r>   -4.9619    1.0000 </r>
       <r>   -4.5332    1.0000 </r>
       <r>   -4.4351    1.0000 </r>
       <r>   -4.4339    1.0000 </r>
       <r>   -4.4295    1.0000 </r>
       <r>   -4.0227    1.0000 </r>
       <r>   -4.0195    1.0000 </r>
       <r>   -4.0189    1.0000 </r>
       <r>   -4.0167    1.0000 </r>
       <r>   -4.0160    1.0000 </r>
       <r>   -4.0026    1.0000 </r>
       <r>   -3.8272    1.0000 </r>
       <r>   -3.8268    1.0000 </r>
       <r>   -3.8168    1.0000 </r>
       <r>   -3.3317    1.0000 </r>
       <r>   -3.3302    1.0000 </r>
       <r>   -3.3286    1.0000 </r>
       <r>   -2.9625    1.0000 </r>
       <r>   -2.9619    1.0000 </r>
       <r>   -2.9525    1.0000 </r>
       <r>   -2.7966    1.0000 </r>
       <r>   -2.7946    1.0000 </r>
       <r>   -2.7940    1.0000 </r>
       <r>   -2.7914    1.0000 </r>
       <r>   -2.7901    1.0000 </r>
       <r>   -2.7765    1.0000 </r>
       <r>   -1.2574    1.0000 </r>
       <r>   -1.2535    1.0000 </r>
       <r>   -1.2520    1.0000 </r>
       <r>   -1.2491    1.0000 </r>
       <r>   -1.2482    1.0000 </r>
       <r>   -1.2367    1.0000 </r>
       <r>   -1.1559    1.0000 </r>
       <r>   -1.1546    1.0000 </r>
       <r>   -1.1447    1.0000 </r>
       <r>   -1.0404    1.0000 </r>
       <r>   -1.0346    1.0000 </r>
       <r>   -1.0276    1.0000 </r>
       <r>   -0.9490    1.0000 </r>
       <r>   -0.9449    1.0000 </r>
       <r>   -0.9341    1.0000 </r>
       <r>   -0.2410    1.0000 </r>
       <r>   -0.1702    1.0000 </r>
       <r>   -0.1653    1.0000 </r>
       <r>   -0.1641    1.0000 </r>
       <r>   -0.1607    1.0000 </r>
       <r>   -0.1604    1.0000 </r>
       <r>   -0.1485    1.0000 </r>
       <r>    0.7109    1.0000 </r>
       <r>    0.7149    1.0000 </r>
       <r>    0.7238    1.0000 </r>
       <r>    1.0434    1.0000 </r>
       <r>    1.0459    1.0000 </r>
       <r>    1.0518    1.0000 </r>
       <r>    1.6509    1.0000 </r>
       <r>    1.6554    1.0000 </r>
       <r>    1.6558    1.0000 </r>
       <r>    1.6579    1.0000 </r>
       <r>    1.6589    1.0000 </r>
       <r>    1.6621    1.0000 </r>
       <r>    1.7129    1.0000 </r>
       <r>    1.7135    1.0000 </r>
       <r>    1.7186    1.0000 </r>
       <r>    2.2677    1.0000 </r>
       <r>    2.2681    1.0000 </r>
       <r>    2.2729    1.0000 </r>
       <r>    2.3635    1.0000 </r>
       <r>    2.3670    1.0000 </r>
       <r>    2.3689    1.0000 </r>
       <r>    2.3703    1.0000 </r>
       <r>    2.3739    1.0000 </r>
       <r>    2.3742    1.0000 </r>
       <r>    2.4184    1.0000 </r>
       <r>    2.4216    1.0000 </r>
       <r>    2.4283    1.0000 </r>
       <r>    2.7309    1.0000 </r>
       <r>    2.7331    1.0000 </r>
       <r>    2.7338    1.0000 </r>
       <r>    2.7339    1.0000 </r>
       <r>    2.7344    1.0000 </r>
       <r>    2.7443    1.0000 </r>
       <r>    2.9955    1.0000 </r>
       <r>    2.9980    1.0000 </r>
       <r>    3.0006    1.0000 </r>
       <r>    3.0100    1.0000 </r>
       <r>    3.0103    1.0000 </r>
       <r>    3.0167    1.0000 </r>
       <r>    3.3607    1.0000 </r>
       <r>    3.3620    1.0000 </r>
       <r>    3.3676    1.0000 </r>
       <r>    3.3835    1.0000 </r>
       <r>    3.3865    1.0000 </r>
       <r>    3.3927    1.0000 </r>
       <r>    3.4623    1.0000 </r>
       <r>    3.4650    1.0000 </r>
       <r>    3.4695    1.0000 </r>
       <r>    3.7390    1.0000 </r>
       <r>    3.7396    1.0000 </r>
       <r>    3.7404    1.0000 </r>
       <r>    3.7412    1.0000 </r>
       <r>    3.7479    1.0000 </r>
       <r>    3.7539    1.0000 </r>
       <r>    3.7754    1.0000 </r>
       <r>    3.7788    1.0000 </r>
       <r>    3.7853    1.0000 </r>
       <r>    4.0442    1.0000 </r>
       <r>    4.0928    1.0000 </r>
       <r>    4.0957    1.0000 </r>
       <r>    4.0993    1.0000 </r>
       <r>    4.3354    1.0000 </r>
       <r>    4.3392    1.0000 </r>
       <r>    4.3425    1.0000 </r>
       <r>    4.4056    1.0000 </r>
       <r>    4.4083    1.0000 </r>
       <r>    4.4179    1.0000 </r>
       <r>    4.5569    1.0000 </r>
       <r>    4.5667    1.0000 </r>
       <r>    4.8622    1.0000 </r>
       <r>    4.8677    1.0000 </r>
       <r>    4.8726    1.0000 </r>
       <r>    5.3422    1.0000 </r>
       <r>    5.3529    1.0000 </r>
       <r>    6.5587    0.0000 </r>
       <r>    6.5595    0.0000 </r>
       <r>    6.5670    0.0000 </r>
       <r>    6.9970    0.0000 </r>
       <r>    7.0045    0.0000 </r>
       <r>    7.0094    0.0000 </r>
       <r>    7.2322    0.0000 </r>
       <r>    7.4832    0.0000 </r>
       <r>    7.4894    0.0000 </r>
       <r>    7.4946    0.0000 </r>
       <r>    7.6146    0.0000 </r>
       <r>    7.6235    0.0000 </r>
       <r>    7.6244    0.0000 </r>
       <r>    7.7746    0.0000 </r>
       <r>    7.7806    0.0000 </r>
       <r>    7.7824    0.0000 </r>
       <r>    7.7982    0.0000 </r>
       <r>    7.7995    0.0000 </r>
       <r>    7.8045    0.0000 </r>
       <r>    8.0260    0.0000 </r>
       <r>    8.0281    0.0000 </r>
       <r>    8.0294    0.0000 </r>
       <r>    8.0307    0.0000 </r>
       <r>    8.0371    0.0000 </r>
       <r>    8.0416    0.0000 </r>
       <r>    8.0790    0.0000 </r>
       <r>    8.2901    0.0000 </r>
       <r>    8.2959    0.0000 </r>
       <r>    8.2981    0.0000 </r>
       <r>    8.4952    0.0000 </r>
       <r>    8.4995    0.0000 </r>
       <r>    8.5014    0.0000 </r>
       <r>    8.5047    0.0000 </r>
       <r>    8.5086    0.0000 </r>
       <r>    8.5316    0.0000 </r>
       <r>    8.5574    0.0000 </r>
      </set>
     </set>
    </set>
   </array>
  </eigenvalues>
  <separator name="orbital magnetization" >
   <v name="MAGDIPOLOUT">      0.00000000      0.00000000      0.00000000</v>
  </separator>
  <dos>
   <i name="efermi">      5.60692221 </i>
   <total>
    <array>
     <dimension dim="1">gridpoints</dimension>
     <dimension dim="2">spin</dimension>
     <field>energy</field>
     <field>total</field>
     <field>integrated</field>
     <set>
      <set comment="spin 1">
       <r>    -6.7208     0.0000     0.0000 </r>
       <r>    -6.6674     0.0000     0.0000 </r>
       <r>    -6.6141     0.0000     0.0000 </r>
       <r>    -6.5607     0.0000     0.0000 </r>
       <r>    -6.5074     0.0000     0.0000 </r>
       <r>    -6.4540     0.0000     0.0000 </r>
       <r>    -6.4006     0.0000     0.0000 </r>
       <r>    -6.3473     0.0000     0.0000 </r>
       <r>    -6.2939     0.0000     0.0000 </r>
       <r>    -6.2406     0.0000     0.0000 </r>
       <r>    -6.1872     0.0000     0.0000 </r>
       <r>    -6.1339     0.0013     0.0001 </r>
       <r>    -6.0805     0.2511     0.0135 </r>
       <r>    -6.0272     6.0451     0.3360 </r>
       <r>    -5.9738    20.2347     1.4156 </r>
       <r>    -5.9205    10.2087     1.9602 </r>
       <r>    -5.8671     0.7390     1.9996 </r>
       <r>    -5.8138     0.0068     2.0000 </r>
       <r>    -5.7604     0.0000     2.0000 </r>
       <r>    -5.7071     0.0000     2.0000 </r>
       <r>    -5.6537     0.0000     2.0000 </r>
       <r>    -5.6004     0.0072     2.0004 </r>
       <r>    -5.5470     1.1304     2.0607 </r>
       <r>    -5.4937    22.1869     3.2444 </r>
       <r>    -5.4403    61.6073     6.5313 </r>
       <r>    -5.3870    25.9544     7.9160 </r>
       <r>    -5.3336     1.5620     7.9994 </r>
       <r>    -5.2803     0.0119     8.0000 </r>
       <r>    -5.2269     0.0000     8.0000 </r>
       <r>    -5.1735     0.0000     8.0000 </r>
       <r>    -5.1202     0.0007     8.0000 </r>
       <r>    -5.0668     0.2374     8.0127 </r>
       <r>    -5.0135     9.6497     8.5275 </r>
       <r>    -4.9601    53.1672    11.3641 </r>
       <r>    -4.9068    43.9448    13.7087 </r>
       <r>    -4.8534     5.3734    13.9954 </r>
       <r>    -4.8001     0.0869    14.0000 </r>
       <r>    -4.7467     0.0002    14.0000 </r>
       <r>    -4.6934     0.0001    14.0000 </r>
       <r>    -4.6400     0.0435    14.0023 </r>
       <r>    -4.5867     2.2898    14.1245 </r>
       <r>    -4.5333    16.2401    14.9909 </r>
       <r>    -4.4800    26.4183    16.4004 </r>
       <r>    -4.4266    56.0395    19.3902 </r>
       <r>    -4.3733    43.5951    21.7161 </r>
       <r>    -4.3199     5.2374    21.9956 </r>
       <r>    -4.2666     0.0832    22.0000 </r>
       <r>    -4.2132     0.0002    22.0000 </r>
       <r>    -4.1599     0.0066    22.0004 </r>
       <r>    -4.1065     1.3020    22.0698 </r>
       <r>    -4.0532    32.9152    23.8259 </r>
       <r>    -3.9998   118.7296    30.1604 </r>
       <r>    -3.9464    66.3998    33.7030 </r>
       <r>    -3.8931     8.4835    34.1556 </r>
       <r>    -3.8397    34.4608    35.9941 </r>
       <r>    -3.7864    59.0153    39.1427 </r>
       <r>    -3.7330    15.4921    39.9693 </r>
       <r>    -3.6797     0.5733    39.9999 </r>
       <r>    -3.6263     0.0027    40.0000 </r>
       <r>    -3.5730     0.0000    40.0000 </r>
       <r>    -3.5196     0.0000    40.0000 </r>
       <r>    -3.4663     0.0058    40.0003 </r>
       <r>    -3.4129     0.9644    40.0518 </r>
       <r>    -3.3596    20.3903    41.1396 </r>
       <r>    -3.3062    61.1748    44.4034 </r>
       <r>    -3.2529    28.0465    45.8998 </r>
       <r>    -3.1995     1.8625    45.9991 </r>
       <r>    -3.1462     0.0160    46.0000 </r>
       <r>    -3.0928     0.0094    46.0005 </r>
       <r>    -3.0395     1.3287    46.0714 </r>
       <r>    -2.9861    23.8881    47.3459 </r>
       <r>    -2.9328    61.5697    50.6308 </r>
       <r>    -2.8794    25.7553    52.0048 </r>
       <r>    -2.8261    36.4034    53.9470 </r>
       <r>    -2.7727   119.6592    60.3311 </r>
       <r>    -2.7193    63.6375    63.7263 </r>
       <r>    -2.6660     5.0749    63.9971 </r>
       <r>    -2.6126     0.0547    64.0000 </r>
       <r>    -2.5593     0.0001    64.0000 </r>
       <r>    -2.5059     0.0000    64.0000 </r>
       <r>    -2.4526     0.0000    64.0000 </r>
       <r>    -2.3992     0.0000    64.0000 </r>
       <r>    -2.3459     0.0000    64.0000 </r>
       <r>    -2.2925     0.0000    64.0000 </r>
       <r>    -2.2392     0.0000    64.0000 </r>
       <r>    -2.1858     0.0000    64.0000 </r>
       <r>    -2.1325     0.0000    64.0000 </r>
       <r>    -2.0791     0.0000    64.0000 </r>
       <r>    -2.0258     0.0000    64.0000 </r>
       <r>    -1.9724     0.0000    64.0000 </r>
       <r>    -1.9191     0.0000    64.0000 </r>
       <r>    -1.8657     0.0000    64.0000 </r>
       <r>    -1.8124     0.0000    64.0000 </r>
       <r>    -1.7590     0.0000    64.0000 </r>
       <r>    -1.7057     0.0000    64.0000 </r>
       <r>    -1.6523     0.0000    64.0000 </r>
       <r>    -1.5990     0.0000    64.0000 </r>
       <r>    -1.5456     0.0000    64.0000 </r>
       <r>    -1.4922     0.0000    64.0000 </r>
       <r>    -1.4389     0.0000    64.0000 </r>
       <r>    -1.3855     0.0155    64.0008 </r>
       <r>    -1.3322     2.2587    64.1213 </r>
       <r>    -1.2788    43.2664    66.4297 </r>
       <r>    -1.2255   123.8047    73.0349 </r>
       <r>    -1.1721    83.1311    77.4702 </r>
       <r>    -1.1188    65.3444    80.9564 </r>
       <r>    -1.0654    38.8086    83.0269 </r>
       <r>    -1.0121    65.2748    86.5095 </r>
       <r>    -0.9587    67.2938    90.0998 </r>
       <r>    -0.9054    58.8614    93.2401 </r>
       <r>    -0.8520    13.7448    93.9735 </r>
       <r>    -0.7987     0.4950    93.9999 </r>
       <r>    -0.7453     0.0024    94.0000 </r>
       <r>    -0.6920     0.0000    94.0000 </r>
       <r>    -0.6386     0.0000    94.0000 </r>
       <r>    -0.5853     0.0000    94.0000 </r>
       <r>    -0.5319     0.0000    94.0000 </r>
       <r>    -0.4786     0.0000    94.0000 </r>
       <r>    -0.4252     0.0000    94.0000 </r>
       <r>    -0.3719     0.0064    94.0003 </r>
       <r>    -0.3185     0.6973    94.0375 </r>
       <r>    -0.2651    10.2257    94.5831 </r>
       <r>    -0.2118    36.7394    96.5432 </r>
       <r>    -0.1584   106.1439   102.2062 </r>
       <r>    -0.1051    94.4581   107.2458 </r>
       <r>    -0.0517    13.8486   107.9846 </r>
       <r>     0.0016     0.2872   108.0000 </r>
       <r>     0.0550     0.0008   108.0000 </r>
       <r>     0.1083     0.0000   108.0000 </r>
       <r>     0.1617     0.0000   108.0000 </r>
       <r>     0.2150     0.0000   108.0000 </r>
       <r>     0.2684     0.0000   108.0000 </r>
       <r>     0.3217     0.0000   108.0000 </r>
       <r>     0.3751     0.0000   108.0000 </r>
       <r>     0.4284     0.0000   108.0000 </r>
       <r>     0.4818     0.0000   108.0000 </r>
       <r>     0.5351     0.0000   108.0000 </r>
       <r>     0.5885     0.0245   108.0013 </r>
       <r>     0.6418     2.3866   108.1286 </r>
       <r>     0.6952    30.9868   109.7819 </r>
       <r>     0.7485    60.0455   112.9854 </r>
       <r>     0.8019    18.2088   113.9569 </r>
       <r>     0.8552     0.8035   113.9998 </r>
       <r>     0.9086     0.0101   114.0003 </r>
       <r>     0.9619     0.9304   114.0499 </r>
       <r>     1.0153    19.9522   115.1144 </r>
       <r>     1.0687    60.9937   118.3686 </r>
       <r>     1.1220    28.6088   119.8949 </r>
       <r>     1.1754     1.9524   119.9991 </r>
       <r>     1.2287     0.0172   120.0000 </r>
       <r>     1.2821     0.0000   120.0000 </r>
       <r>     1.3354     0.0000   120.0000 </r>
       <r>     1.3888     0.0000   120.0000 </r>
       <r>     1.4421     0.0000   120.0000 </r>
       <r>     1.4955     0.0006   120.0000 </r>
       <r>     1.5488     0.2618   120.0140 </r>
       <r>     1.6022    13.6828   120.7440 </r>
       <r>     1.6555   100.0516   126.0820 </r>
       <r>     1.7089   141.8970   133.6525 </r>
       <r>     1.7622    70.2052   137.3981 </r>
       <r>     1.8156    10.9942   137.9847 </r>
       <r>     1.8689     0.2868   137.9999 </r>
       <r>     1.9223     0.0009   138.0000 </r>
       <r>     1.9756     0.0000   138.0000 </r>
       <r>     2.0290     0.0000   138.0000 </r>
       <r>     2.0823     0.0000   138.0000 </r>
       <r>     2.1357     0.0111   138.0006 </r>
       <r>     2.1890     1.4809   138.0796 </r>
       <r>     2.2424    25.2778   139.4282 </r>
       <r>     2.2958    65.5599   142.9260 </r>
       <r>     2.3491    81.9453   147.2979 </r>
       <r>     2.4025   150.5887   155.3322 </r>
       <r>     2.4558   101.1482   160.7287 </r>
       <r>     2.5092    22.7854   161.9443 </r>
       <r>     2.5625     1.0377   161.9997 </r>
       <r>     2.6159     0.0977   162.0049 </r>
       <r>     2.6692     7.1774   162.3878 </r>
       <r>     2.7226    74.6218   166.3690 </r>
       <r>     2.7759   115.0015   172.5046 </r>
       <r>     2.8293    27.1274   173.9519 </r>
       <r>     2.8826     0.9668   174.0035 </r>
       <r>     2.9360     5.7628   174.3110 </r>
       <r>     2.9893    65.9816   177.8312 </r>
       <r>     3.0427   117.5578   184.1032 </r>
       <r>     3.0960    34.0533   185.9200 </r>
       <r>     3.1494     1.4906   185.9995 </r>
       <r>     3.2027     0.0092   186.0000 </r>
       <r>     3.2561     0.1816   186.0097 </r>
       <r>     3.3094     9.7102   186.5278 </r>
       <r>     3.3628    78.3608   190.7085 </r>
       <r>     3.4161   117.2655   196.9649 </r>
       <r>     3.4695    78.1759   201.1357 </r>
       <r>     3.5229    47.3188   203.6603 </r>
       <r>     3.5762     6.2546   203.9940 </r>
       <r>     3.6296     0.3129   204.0107 </r>
       <r>     3.6829    11.6994   204.6348 </r>
       <r>     3.7363   100.0693   209.9738 </r>
       <r>     3.7896   160.3163   218.5270 </r>
       <r>     3.8430    60.0399   221.7302 </r>
       <r>     3.8963     4.9895   221.9964 </r>
       <r>     3.9497     0.2690   222.0108 </r>
       <r>     4.0030     5.7092   222.3154 </r>
       <r>     4.0564    32.8731   224.0692 </r>
       <r>     4.1097    68.4829   227.7230 </r>
       <r>     4.1631    38.8989   229.7983 </r>
       <r>     4.2164     3.7586   229.9988 </r>
       <r>     4.2698     2.5862   230.1368 </r>
       <r>     4.3231    33.3175   231.9144 </r>
       <r>     4.3765    81.9012   236.2840 </r>
       <r>     4.4298    77.8441   240.4371 </r>
       <r>     4.4832    28.4254   241.9537 </r>
       <r>     4.5365    18.0958   242.9191 </r>
       <r>     4.5899    40.8765   245.1000 </r>
       <r>     4.6432    15.9529   245.9511 </r>
       <r>     4.6966     0.9099   245.9996 </r>
       <r>     4.7500     0.0501   246.0023 </r>
       <r>     4.8033     3.4153   246.1845 </r>
       <r>     4.8567    36.2349   248.1177 </r>
       <r>     4.9100    57.8682   251.2051 </r>
       <r>     4.9634    14.3843   251.9726 </r>
       <r>     5.0167     0.5118   251.9999 </r>
       <r>     5.0701     0.0023   252.0000 </r>
       <r>     5.1234     0.0000   252.0000 </r>
       <r>     5.1768     0.0001   252.0000 </r>
       <r>     5.2301     0.0312   252.0017 </r>
       <r>     5.2835     2.3733   252.1283 </r>
       <r>     5.3368    24.4701   253.4338 </r>
       <r>     5.3902    38.3401   255.4794 </r>
       <r>     5.4435     9.4237   255.9821 </r>
       <r>     5.4969     0.3336   255.9999 </r>
       <r>     5.5502     0.0015   256.0000 </r>
       <r>     5.6036     0.0000   256.0000 </r>
       <r>     5.6569     0.0000   256.0000 </r>
       <r>     5.7103     0.0000   256.0000 </r>
       <r>     5.7636     0.0000   256.0000 </r>
       <r>     5.8170     0.0000   256.0000 </r>
       <r>     5.8703     0.0000   256.0000 </r>
       <r>     5.9237     0.0000   256.0000 </r>
       <r>     5.9771     0.0000   256.0000 </r>
       <r>     6.0304     0.0000   256.0000 </r>
       <r>     6.0838     0.0000   256.0000 </r>
       <r>     6.1371     0.0000   256.0000 </r>
       <r>     6.1905     0.0000   256.0000 </r>
       <r>     6.2438     0.0000   256.0000 </r>
       <r>     6.2972     0.0000   256.0000 </r>
       <r>     6.3505     0.0000   256.0000 </r>
       <r>     6.4039     0.0004   256.0000 </r>
       <r>     6.4572     0.1575   256.0084 </r>
       <r>     6.5106     7.5637   256.4120 </r>
       <r>     6.5639    49.2431   259.0392 </r>
       <r>     6.6173    48.2505   261.6135 </r>
       <r>     6.6706     7.1036   261.9924 </r>
       <r>     6.7240     0.1413   262.0000 </r>
       <r>     6.7773     0.0003   262.0000 </r>
       <r>     6.8307     0.0001   262.0000 </r>
       <r>     6.8840     0.0411   262.0022 </r>
       <r>     6.9374     3.3371   262.1802 </r>
       <r>     6.9907    36.0776   264.1051 </r>
       <r>     7.0441    58.1006   267.2048 </r>
       <r>     7.0974    14.4010   267.9732 </r>
       <r>     7.1508     0.8589   268.0190 </r>
       <r>     7.2042     7.2063   268.4035 </r>
       <r>     7.2575    20.5274   269.4987 </r>
       <r>     7.3109     8.8488   269.9708 </r>
       <r>     7.3642     0.5655   270.0009 </r>
       <r>     7.4176     2.2394   270.1204 </r>
       <r>     7.4709    30.3222   271.7382 </r>
       <r>     7.5243    60.8882   274.9867 </r>
       <r>     7.5776    31.6015   276.6727 </r>
       <r>     7.6310    57.8455   279.7589 </r>
       <r>     7.6843    38.6264   281.8197 </r>
       <r>     7.7377    20.7082   282.9245 </r>
       <r>     7.7910    96.4557   288.0706 </r>
       <r>     7.8444    94.6901   293.1225 </r>
       <r>     7.8977    16.0516   293.9789 </r>
       <r>     7.9511     3.3440   294.1573 </r>
       <r>     8.0044    50.0440   296.8273 </r>
       <r>     8.0578   131.4606   303.8410 </r>
       <r>     8.1111    67.7377   307.4549 </r>
       <r>     8.1645     9.8524   307.9806 </r>
       <r>     8.2178     2.0343   308.0891 </r>
       <r>     8.2712    26.6264   309.5097 </r>
       <r>     8.3245    61.4536   312.7884 </r>
       <r>     8.3779    21.6733   313.9447 </r>
       <r>     8.4313     5.7140   314.2496 </r>
       <r>     8.4846    59.9095   317.4459 </r>
       <r>     8.5380   131.0754   324.4390 </r>
       <r>     8.5913    59.9152   327.6356 </r>
       <r>     8.6447     6.6703   327.9915 </r>
       <r>     8.6980     0.1589   328.0000 </r>
       <r>     8.7514     0.0006   328.0000 </r>
       <r>     8.8047     0.0000   328.0000 </r>
       <r>     8.8581     0.0000   328.0000 </r>
       <r>     8.9114     0.0000   328.0000 </r>
       <r>     8.9648     0.0000   328.0000 </r>
       <r>     9.0181     0.0000   328.0000 </r>
       <r>     9.0715     0.0000   328.0000 </r>
       <r>     9.1248     0.0000   328.0000 </r>
       <r>     9.1782     0.0000   328.0000 </r>
       <r>     9.2315     0.0000   328.0000 </r>
       <r>     9.2849     0.0000   328.0000 </r>
      </set>
     </set>
    </array>
   </total>
  </dos>
 </calculation>
 <structure name="finalpos" >
  <crystal>
   <varray name="basis" >
    <v>      10.93252578       0.00000000       0.00000000 </v>
    <v>       0.00000000      10.93252578       0.00000000 </v>
    <v>       0.00000000       0.00000000      10.93252578 </v>
   </varray>
   <i name="volume">   1306.65679237 </i>
   <varray name="rec_basis" >
    <v>       0.09147017       0.00000000       0.00000000 </v>
    <v>       0.00000000       0.09147017       0.00000000 </v>
    <v>       0.00000000       0.00000000       0.09147017 </v>
   </varray>
  </crystal>
  <varray name="positions" >
   <v>       0.44024411       0.43750000       0.43750000 </v>
   <v>       0.93750000       0.43750000       0.43750000 </v>
   <v>       0.43750000       0.93750000       0.43750000 </v>
   <v>       0.93750000       0.93750000       0.43750000 </v>
   <v>       0.43750000       0.43750000       0.93750000 </v>
   <v>       0.93750000       0.43750000       0.93750000 </v>
   <v>       0.43750000       0.93750000       0.93750000 </v>
   <v>       0.93750000       0.93750000       0.93750000 </v>
   <v>       0.43750000       0.18750000       0.18750000 </v>
   <v>       0.93750000       0.18750000       0.18750000 </v>
   <v>       0.43750000       0.68750000       0.18750000 </v>
   <v>       0.93750000       0.68750000       0.18750000 </v>
   <v>       0.43750000       0.18750000       0.68750000 </v>
   <v>       0.93750000       0.18750000       0.68750000 </v>
   <v>       0.43750000       0.68750000       0.68750000 </v>
   <v>       0.93750000       0.68750000       0.68750000 </v>
   <v>       0.18750000       0.43750000       0.18750000 </v>
   <v>       0.68750000       0.43750000       0.18750000 </v>
   <v>       0.18750000       0.93750000       0.18750000 </v>
   <v>       0.68750000       0.93750000       0.18750000 </v>
   <v>       0.18750000       0.43750000       0.68750000 </v>
   <v>       0.68750000       0.43750000       0.68750000 </v>
   <v>       0.18750000       0.93750000       0.68750000 </v>
   <v>       0.68750000       0.93750000       0.68750000 </v>
   <v>       0.18750000       0.18750000       0.43750000 </v>
   <v>       0.68750000       0.18750000       0.43750000 </v>
   <v>       0.18750000       0.68750000       0.43750000 </v>
   <v>       0.68750000       0.68750000       0.43750000 </v>
   <v>       0.18750000       0.18750000       0.93750000 </v>
   <v>       0.68750000       0.18750000       0.93750000 </v>
   <v>       0.18750000       0.68750000       0.93750000 </v>
   <v>       0.68750000       0.68750000       0.93750000 </v>
   <v>       0.06250000       0.06250000       0.06250000 </v>
   <v>       0.56250000       0.06250000       0.06250000 </v>
   <v>       0.06250000       0.56250000       0.06250000 </v>
   <v>       0.56250000       0.56250000       0.06250000 </v>
   <v>       0.06250000       0.06250000       0.56250000 </v>
   <v>       0.56250000       0.06250000       0.56250000 </v>
   <v>       0.06250000       0.56250000       0.56250000 </v>
   <v>       0.56250000       0.56250000       0.56250000 </v>
   <v>       0.06250000       0.31250000       0.31250000 </v>
   <v>       0.56250000       0.31250000       0.31250000 </v>
   <v>       0.06250000       0.81250000       0.31250000 </v>
   <v>       0.56250000       0.81250000       0.31250000 </v>
   <v>       0.06250000       0.31250000       0.81250000 </v>
   <v>       0.56250000       0.31250000       0.81250000 </v>
   <v>       0.06250000       0.81250000       0.81250000 </v>
   <v>       0.56250000       0.81250000       0.81250000 </v>
   <v>       0.31250000       0.06250000       0.31250000 </v>
   <v>       0.81250000       0.06250000       0.31250000 </v>
   <v>       0.30975589       0.56250000       0.31250000 </v>
   <v>       0.81250000       0.56250000       0.31250000 </v>
   <v>       0.31250000       0.06250000       0.81250000 </v>
   <v>       0.81250000       0.06250000       0.81250000 </v>
   <v>       0.31250000       0.56250000       0.81250000 </v>
   <v>       0.81250000       0.56250000       0.81250000 </v>
   <v>       0.31250000       0.31250000       0.06250000 </v>
   <v>       0.81250000       0.31250000       0.06250000 </v>
   <v>       0.31250000       0.81250000       0.06250000 </v>
   <v>       0.81250000       0.81250000       0.06250000 </v>
   <v>       0.31250000       0.31250000       0.56250000 </v>
   <v>       0.81250000       0.31250000       0.56250000 </v>
   <v>       0.31250000       0.81250000       0.56250000 </v>
   <v>       0.81250000       0.81250000       0.56250000 </v>
  </varray>
 </structure>
</modeling>
