<?xml version="1.0" encoding="ISO-8859-1"?>
<modeling>
 <generator>
  <i name="program" type="string">vasp </i>
  <i name="version" type="string">5.4.1  </i>
  <i name="subversion" type="string">05Feb16 (build Mar 26 2016 11:58:25) complex                          parallel </i>
  <i name="platform" type="string">IFC91_ompi </i>
  <i name="date" type="string">2017 03 12 </i>
  <i name="time" type="string">12:16:26 </i>
 </generator>
 <incar>
  <i type="string" name="PREC">accurate</i>
  <i type="int" name="IALGO">    38</i>
  <i type="logical" name="ADDGRID"> T  </i>
  <i type="int" name="NELMIN">     5</i>
  <i type="int" name="IBRION">    -1</i>
  <i name="EDIFF">      0.00000001</i>
  <i name="ENCUT">    300.00000000</i>
  <i type="logical" name="LREAL"> F  </i>
  <i type="int" name="ISMEAR">     0</i>
  <i name="SIGMA">      0.05000000</i>
  <i type="logical" name="LWAVE"> F  </i>
  <i type="logical" name="LCHARG"> F  </i>
  <v type="int" name="KPOINT_BSE">    -1     0     0     0</v>
 </incar>
 <kpoints>
  <generation param="Monkhorst-Pack">
   <v type="int" name="divisions">       2        2        2 </v>
   <v name="usershift">      0.00000000       0.00000000       0.00000000 </v>
   <v name="genvec1">      0.50000000       0.00000000       0.00000000 </v>
   <v name="genvec2">      0.00000000       0.50000000       0.00000000 </v>
   <v name="genvec3">      0.00000000       0.00000000       0.50000000 </v>
   <v name="shift">      0.50000000       0.50000000       0.50000000 </v>
  </generation>
  <varray name="kpointlist" >
   <v>       0.25000000       0.25000000       0.25000000 </v>
   <v>      -0.25000000       0.25000000       0.25000000 </v>
   <v>      -0.25000000      -0.25000000       0.25000000 </v>
  </varray>
  <varray name="weights" >
   <v>       0.25000000 </v>
   <v>       0.50000000 </v>
   <v>       0.25000000 </v>
  </varray>
 </kpoints>
 <parameters>
  <separator name="general" >
   <i type="string" name="SYSTEM">unknown system</i>
   <i type="logical" name="LCOMPAT"> F  </i>
  </separator>
  <separator name="electronic" >
   <i type="string" name="PREC">accura</i>
   <i name="ENMAX">    300.00000000</i>
   <i name="ENAUG">    322.06900000</i>
   <i name="EDIFF">      0.00000001</i>
   <i type="int" name="IALGO">    38</i>
   <i type="int" name="IWAVPR">    10</i>
   <i type="int" name="NBANDS">   164</i>
   <i name="NELECT">    256.00000000</i>
   <i type="int" name="TURBO">     0</i>
   <i type="int" name="IRESTART">     0</i>
   <i type="int" name="NREBOOT">     0</i>
   <i type="int" name="NMIN">     0</i>
   <i name="EREF">      0.00000000</i>
   <separator name="electronic smearing" >
    <i type="int" name="ISMEAR">     0</i>
    <i name="SIGMA">      0.05000000</i>
    <i name="KSPACING">      0.50000000</i>
    <i type="logical" name="KGAMMA"> T  </i>
   </separator>
   <separator name="electronic projectors" >
    <i type="logical" name="LREAL"> F  </i>
    <v name="ROPT">      0.00000000</v>
    <i type="int" name="LMAXPAW">  -100</i>
    <i type="int" name="LMAXMIX">     2</i>
    <i type="logical" name="NLSPLINE"> F  </i>
   </separator>
   <separator name="electronic startup" >
    <i type="int" name="ISTART">     0</i>
    <i type="int" name="ICHARG">     2</i>
    <i type="int" name="INIWAV">     1</i>
   </separator>
   <separator name="electronic spin" >
    <i type="int" name="ISPIN">     1</i>
    <i type="logical" name="LNONCOLLINEAR"> F  </i>
    <v name="MAGMOM">      1.00000000      1.00000000      1.00000000      1.00000000      1.00000000      1.00000000      1.00000000      1.00000000      1.00000000      1.00000000      1.00000000      1.00000000      1.00000000      1.00000000      1.00000000      1.00000000      1.00000000      1.00000000      1.00000000      1.00000000
      1.00000000      1.00000000      1.00000000      1.00000000      1.00000000      1.00000000      1.00000000      1.00000000      1.00000000      1.00000000      1.00000000      1.00000000      1.00000000      1.00000000      1.00000000      1.00000000      1.00000000      1.00000000      1.00000000      1.00000000
      1.00000000      1.00000000      1.00000000      1.00000000      1.00000000      1.00000000      1.00000000      1.00000000      1.00000000      1.00000000      1.00000000      1.00000000      1.00000000      1.00000000      1.00000000      1.00000000      1.00000000      1.00000000      1.00000000      1.00000000
      1.00000000      1.00000000      1.00000000      1.00000000</v>
    <i name="NUPDOWN">     -1.00000000</i>
    <i type="logical" name="LSORBIT"> F  </i>
    <v name="SAXIS">      0.00000000      0.00000000      1.00000000</v>
    <i type="logical" name="LSPIRAL"> F  </i>
    <v name="QSPIRAL">      0.00000000      0.00000000      0.00000000</v>
    <i type="logical" name="LZEROZ"> F  </i>
   </separator>
   <separator name="electronic exchange-correlation" >
    <i type="logical" name="LASPH"> F  </i>
    <i type="logical" name="LMETAGGA"> F  </i>
   </separator>
   <separator name="electronic convergence" >
    <i type="int" name="NELM">    60</i>
    <i type="int" name="NELMDL">    -5</i>
    <i type="int" name="NELMIN">     5</i>
    <i name="ENINI">    300.00000000</i>
    <separator name="electronic convergence detail" >
     <i type="logical" name="LDIAG"> T  </i>
     <i type="logical" name="LSUBROT"> F  </i>
     <i name="WEIMIN">      0.00000000</i>
     <i name="EBREAK">      0.00000000</i>
     <i name="DEPER">      0.30000000</i>
     <i type="int" name="NRMM">     4</i>
     <i name="TIME">      0.40000000</i>
    </separator>
   </separator>
   <separator name="electronic mixer" >
    <i name="AMIX">      0.40000000</i>
    <i name="BMIX">      1.00000000</i>
    <i name="AMIN">      0.10000000</i>
    <i name="AMIX_MAG">      1.60000000</i>
    <i name="BMIX_MAG">      1.00000000</i>
    <separator name="electronic mixer details" >
     <i type="int" name="IMIX">     4</i>
     <i type="logical" name="MIXFIRST"> F  </i>
     <i type="int" name="MAXMIX">   -45</i>
     <i name="WC">    100.00000000</i>
     <i type="int" name="INIMIX">     1</i>
     <i type="int" name="MIXPRE">     1</i>
     <i type="int" name="MREMOVE">     5</i>
    </separator>
   </separator>
   <separator name="electronic dipolcorrection" >
    <i type="logical" name="LDIPOL"> F  </i>
    <i type="logical" name="LMONO"> F  </i>
    <i type="int" name="IDIPOL">     0</i>
    <i name="EPSILON">      1.00000000</i>
    <v name="DIPOL">   -100.00000000   -100.00000000   -100.00000000</v>
    <i name="EFIELD">      0.00000000</i>
   </separator>
  </separator>
  <separator name="grids" >
   <i type="int" name="NGX">    64</i>
   <i type="int" name="NGY">    64</i>
   <i type="int" name="NGZ">    64</i>
   <i type="int" name="NGXF">   128</i>
   <i type="int" name="NGYF">   128</i>
   <i type="int" name="NGZF">   128</i>
   <i type="logical" name="ADDGRID"> T  </i>
  </separator>
  <separator name="ionic" >
   <i type="int" name="NSW">     0</i>
   <i type="int" name="IBRION">    -1</i>
   <i type="int" name="ISIF">     2</i>
   <i name="PSTRESS">      0.00000000</i>
   <i name="EDIFFG">      0.00000010</i>
   <i type="int" name="NFREE">     0</i>
   <i name="POTIM">      0.50000000</i>
   <i name="SMASS">     -3.00000000</i>
   <i name="SCALEE">      1.00000000</i>
  </separator>
  <separator name="ionic md" >
   <i name="TEBEG">      0.00010000</i>
   <i name="TEEND">      0.00010000</i>
   <i type="int" name="NBLOCK">     1</i>
   <i type="int" name="KBLOCK">     1</i>
   <i type="int" name="NPACO">   256</i>
   <i name="APACO">     16.00000000</i>
  </separator>
  <separator name="symmetry" >
   <i type="int" name="ISYM">     2</i>
   <i name="SYMPREC">      0.00001000</i>
  </separator>
  <separator name="dos" >
   <i type="logical" name="LORBIT"> F  </i>
   <v name="RWIGS">     -1.00000000</v>
   <i type="int" name="NEDOS">   301</i>
   <i name="EMIN">     10.00000000</i>
   <i name="EMAX">    -10.00000000</i>
   <i name="EFERMI">      0.00000000</i>
  </separator>
  <separator name="writing" >
   <i type="int" name="NWRITE">     2</i>
   <i type="logical" name="LWAVE"> F  </i>
   <i type="logical" name="LCHARG"> F  </i>
   <i type="logical" name="LPARD"> F  </i>
   <i type="logical" name="LVTOT"> F  </i>
   <i type="logical" name="LVHAR"> F  </i>
   <i type="logical" name="LELF"> F  </i>
   <i type="logical" name="LOPTICS"> F  </i>
   <v name="STM">      0.00000000      0.00000000      0.00000000      0.00000000      0.00000000      0.00000000      0.00000000</v>
  </separator>
  <separator name="performance" >
   <i type="int" name="NPAR">     4</i>
   <i type="int" name="NSIM">     4</i>
   <i type="int" name="NBLK">    -1</i>
   <i type="logical" name="LPLANE"> T  </i>
   <i type="logical" name="LSCALAPACK"> T  </i>
   <i type="logical" name="LSCAAWARE"> F  </i>
   <i type="logical" name="LSCALU"> F  </i>
   <i type="logical" name="LASYNC"> F  </i>
   <i type="logical" name="LORBITALREAL"> F  </i>
  </separator>
  <separator name="miscellaneous" >
   <i type="int" name="IDIOT">     3</i>
   <i type="logical" name="LMUSIC"> F  </i>
   <v name="POMASS">     28.08500000</v>
   <v name="DARWINR">      0.00000000</v>
   <v name="DARWINV">      1.00000000</v>
   <i type="logical" name="LCORR"> T  </i>
  </separator>
  <i type="logical" name="GGA_COMPAT"> T  </i>
  <i type="logical" name="LBERRY"> F  </i>
  <i type="int" name="ICORELEVEL">     0</i>
  <i type="logical" name="LDAU"> F  </i>
  <i type="int" name="I_CONSTRAINED_M">     0</i>
  <separator name="electronic exchange-correlation" >
   <i type="string" name="GGA">--</i>
   <i type="int" name="VOSKOWN">     0</i>
   <i type="logical" name="LHFCALC"> F  </i>
   <i type="string" name="PRECFOCK"></i>
   <i type="logical" name="LSYMGRAD"> F  </i>
   <i type="logical" name="LHFONE"> F  </i>
   <i type="logical" name="LRHFCALC"> F  </i>
   <i type="logical" name="LTHOMAS"> F  </i>
   <i type="logical" name="LMODELHF"> F  </i>
   <i name="ENCUT4O">     -1.00000000</i>
   <i type="int" name="EXXOEP">     0</i>
   <i type="int" name="FOURORBIT">     0</i>
   <i name="AEXX">      0.00000000</i>
   <i name="HFALPHA">      0.00000000</i>
   <i name="MCALPHA">      0.00000000</i>
   <i name="ALDAX">      1.00000000</i>
   <i name="AGGAX">      1.00000000</i>
   <i name="ALDAC">      1.00000000</i>
   <i name="AGGAC">      1.00000000</i>
   <i type="int" name="NKREDX">     1</i>
   <i type="int" name="NKREDY">     1</i>
   <i type="int" name="NKREDZ">     1</i>
   <i type="logical" name="SHIFTRED"> F  </i>
   <i type="logical" name="ODDONLY"> F  </i>
   <i type="logical" name="EVENONLY"> F  </i>
   <i type="int" name="LMAXFOCK">     0</i>
   <i type="int" name="NMAXFOCKAE">     0</i>
   <i type="logical" name="LFOCKAEDFT"> F  </i>
   <i name="HFSCREEN">      0.00000000</i>
   <i name="HFSCREENC">      0.00000000</i>
   <i type="int" name="NBANDSGWLOW">     0</i>
  </separator>
  <separator name="vdW DFT" >
   <i type="logical" name="LUSE_VDW"> F  </i>
   <i name="Zab_VDW">     -0.84910000</i>
   <i name="PARAM1">      0.12340000</i>
   <i name="PARAM2">      1.00000000</i>
   <i name="PARAM3">      0.00000000</i>
  </separator>
  <separator name="model GW" >
   <i type="int" name="MODEL_GW">     0</i>
   <i name="MODEL_EPS0">     12.24990743</i>
   <i name="MODEL_ALPHA">      1.00000000</i>
  </separator>
  <separator name="linear response parameters" >
   <i type="logical" name="LEPSILON"> F  </i>
   <i type="logical" name="LRPA"> F  </i>
   <i type="logical" name="LNABLA"> F  </i>
   <i type="logical" name="LVEL"> F  </i>
   <i type="int" name="KINTER">     0</i>
   <i name="CSHIFT">      0.10000000</i>
   <i name="OMEGAMAX">     -1.00000000</i>
   <i name="DEG_THRESHOLD">      0.00200000</i>
  </separator>
  <separator name="orbital magnetization" >
   <i type="logical" name="NUCIND"> F  </i>
   <v name="MAGPOS">      0.00000000      0.00000000      0.00000000</v>
   <i type="logical" name="LNICSALL"> T  </i>
   <i type="logical" name="ORBITALMAG"> F  </i>
   <i type="logical" name="LMAGBLOCH"> F  </i>
   <i type="logical" name="LCHIMAG"> F  </i>
   <i type="logical" name="LGAUGE"> T  </i>
   <i type="int" name="MAGATOM">     0</i>
   <v name="MAGDIPOL">      0.00000000      0.00000000      0.00000000</v>
   <v name="AVECCONST">      0.00000000      0.00000000      0.00000000</v>
  </separator>
  <separator name="response functions" >
   <i type="logical" name="LADDER"> F  </i>
   <i type="logical" name="LFXC"> F  </i>
   <i type="logical" name="LHARTREE"> T  </i>
   <i type="int" name="IBSE">     0</i>
   <v type="int" name="KPOINT">    -1     0     0     0</v>
   <i type="logical" name="LTCTE"> F  </i>
   <i type="logical" name="LTETE"> F  </i>
   <i type="logical" name="LTRIPLET"> F  </i>
   <i type="logical" name="LFXCEPS"> F  </i>
   <i type="logical" name="LFXHEG"> F  </i>
   <i type="int" name="NATURALO">     0</i>
   <i type="logical" name="L2ORDER"> F  </i>
   <i type="logical" name="LUSEW"> F  </i>
   <i name="ENCUTGW">     -2.00000000</i>
   <i name="ENCUTGWSOFT">     -2.00000000</i>
   <i name="ENCUTLF">     -1.00000000</i>
   <i type="int" name="LMAXMP2">    -1</i>
   <i name="SCISSOR">      0.00000000</i>
   <i type="int" name="NOMEGA">     0</i>
   <i type="int" name="NOMEGAR">     0</i>
   <i type="int" name="NBANDSGW">    -1</i>
   <i type="int" name="NBANDSO">    -1</i>
   <i type="int" name="NBANDSV">    -1</i>
   <i type="int" name="NELM">     1</i>
   <i type="int" name="NELMHF">     1</i>
   <i type="int" name="DIM">     3</i>
   <i type="int" name="ANTIRES">     0</i>
   <i name="OMEGAMAX">    -30.00000000</i>
   <i name="OMEGAMIN">    -30.00000000</i>
   <i name="OMEGATL">   -200.00000000</i>
   <i type="int" name="OMEGAGRID">     0</i>
   <i name="CSHIFT">     -0.10000000</i>
   <i type="logical" name="SELFENERGY"> F  </i>
   <i type="logical" name="LSPECTRAL"> F  </i>
   <i type="logical" name="LSPECTRALGW"> F  </i>
   <i type="logical" name="LSINGLES"> F  </i>
   <i type="logical" name="LFERMIGW"> F  </i>
   <i type="logical" name="ODDONLYGW"> F  </i>
   <i type="logical" name="EVENONLYGW"> F  </i>
   <i type="int" name="NKREDLFX">     1</i>
   <i type="int" name="NKREDLFY">     1</i>
   <i type="int" name="NKREDLFZ">     1</i>
   <i type="int" name="MAXMEM">  1800</i>
   <i type="int" name="TELESCOPE">     0</i>
   <i type="int" name="TAUPAR">     1</i>
   <i type="int" name="OMEGAPAR">    -1</i>
   <i name="LAMBDA">      1.00000000</i>
  </separator>
  <separator name="External order field" >
   <i name="OFIELD_KAPPA">      0.00000000</i>
   <v name="OFIELD_K">      0.00000000      0.00000000      0.00000000</v>
   <i name="OFIELD_Q6_NEAR">      0.00000000</i>
   <i name="OFIELD_Q6_FAR">      0.00000000</i>
   <i name="OFIELD_A">      0.00000000</i>
  </separator>
 </parameters>
 <atominfo>
  <atoms>      64 </atoms>
  <types>       1 </types>
  <array name="atoms" >
   <dimension dim="1">ion</dimension>
   <field type="string">element</field>
   <field type="int">atomtype</field>
   <set>
    <rc><c>Si</c><c>   1</c></rc>
    <rc><c>Si</c><c>   1</c></rc>
    <rc><c>Si</c><c>   1</c></rc>
    <rc><c>Si</c><c>   1</c></rc>
    <rc><c>Si</c><c>   1</c></rc>
    <rc><c>Si</c><c>   1</c></rc>
    <rc><c>Si</c><c>   1</c></rc>
    <rc><c>Si</c><c>   1</c></rc>
    <rc><c>Si</c><c>   1</c></rc>
    <rc><c>Si</c><c>   1</c></rc>
    <rc><c>Si</c><c>   1</c></rc>
    <rc><c>Si</c><c>   1</c></rc>
    <rc><c>Si</c><c>   1</c></rc>
    <rc><c>Si</c><c>   1</c></rc>
    <rc><c>Si</c><c>   1</c></rc>
    <rc><c>Si</c><c>   1</c></rc>
    <rc><c>Si</c><c>   1</c></rc>
    <rc><c>Si</c><c>   1</c></rc>
    <rc><c>Si</c><c>   1</c></rc>
    <rc><c>Si</c><c>   1</c></rc>
    <rc><c>Si</c><c>   1</c></rc>
    <rc><c>Si</c><c>   1</c></rc>
    <rc><c>Si</c><c>   1</c></rc>
    <rc><c>Si</c><c>   1</c></rc>
    <rc><c>Si</c><c>   1</c></rc>
    <rc><c>Si</c><c>   1</c></rc>
    <rc><c>Si</c><c>   1</c></rc>
    <rc><c>Si</c><c>   1</c></rc>
    <rc><c>Si</c><c>   1</c></rc>
    <rc><c>Si</c><c>   1</c></rc>
    <rc><c>Si</c><c>   1</c></rc>
    <rc><c>Si</c><c>   1</c></rc>
    <rc><c>Si</c><c>   1</c></rc>
    <rc><c>Si</c><c>   1</c></rc>
    <rc><c>Si</c><c>   1</c></rc>
    <rc><c>Si</c><c>   1</c></rc>
    <rc><c>Si</c><c>   1</c></rc>
    <rc><c>Si</c><c>   1</c></rc>
    <rc><c>Si</c><c>   1</c></rc>
    <rc><c>Si</c><c>   1</c></rc>
    <rc><c>Si</c><c>   1</c></rc>
    <rc><c>Si</c><c>   1</c></rc>
    <rc><c>Si</c><c>   1</c></rc>
    <rc><c>Si</c><c>   1</c></rc>
    <rc><c>Si</c><c>   1</c></rc>
    <rc><c>Si</c><c>   1</c></rc>
    <rc><c>Si</c><c>   1</c></rc>
    <rc><c>Si</c><c>   1</c></rc>
    <rc><c>Si</c><c>   1</c></rc>
    <rc><c>Si</c><c>   1</c></rc>
    <rc><c>Si</c><c>   1</c></rc>
    <rc><c>Si</c><c>   1</c></rc>
    <rc><c>Si</c><c>   1</c></rc>
    <rc><c>Si</c><c>   1</c></rc>
    <rc><c>Si</c><c>   1</c></rc>
    <rc><c>Si</c><c>   1</c></rc>
    <rc><c>Si</c><c>   1</c></rc>
    <rc><c>Si</c><c>   1</c></rc>
    <rc><c>Si</c><c>   1</c></rc>
    <rc><c>Si</c><c>   1</c></rc>
    <rc><c>Si</c><c>   1</c></rc>
    <rc><c>Si</c><c>   1</c></rc>
    <rc><c>Si</c><c>   1</c></rc>
    <rc><c>Si</c><c>   1</c></rc>
   </set>
  </array>
  <array name="atomtypes" >
   <dimension dim="1">type</dimension>
   <field type="int">atomspertype</field>
   <field type="string">element</field>
   <field>mass</field>
   <field>valence</field>
   <field type="string">pseudopotential</field>
   <set>
    <rc><c>  64</c><c>Si</c><c>     28.08500000</c><c>      4.00000000</c><c>  PAW_PBE Si 05Jan2001                  </c></rc>
   </set>
  </array>
 </atominfo>
 <structure name="initialpos" >
  <crystal>
   <varray name="basis" >
    <v>      10.93252578       0.00000000       0.00000000 </v>
    <v>       0.00000000      10.93252578       0.00000000 </v>
    <v>       0.00000000       0.00000000      10.93252578 </v>
   </varray>
   <i name="volume">   1306.65679237 </i>
   <varray name="rec_basis" >
    <v>       0.09147017       0.00000000       0.00000000 </v>
    <v>       0.00000000       0.09147017       0.00000000 </v>
    <v>       0.00000000       0.00000000       0.09147017 </v>
   </varray>
  </crystal>
  <varray name="positions" >
   <v>       0.44024411       0.43750000       0.43750000 </v>
   <v>       0.93750000       0.43750000       0.43750000 </v>
   <v>       0.43750000       0.93750000       0.43750000 </v>
   <v>       0.93750000       0.93750000       0.43750000 </v>
   <v>       0.43750000       0.43750000       0.93750000 </v>
   <v>       0.93750000       0.43750000       0.93750000 </v>
   <v>       0.43750000       0.93750000       0.93750000 </v>
   <v>       0.93750000       0.93750000       0.93750000 </v>
   <v>       0.43750000       0.18750000       0.18750000 </v>
   <v>       0.93750000       0.18750000       0.18750000 </v>
   <v>       0.43750000       0.68750000       0.18750000 </v>
   <v>       0.93750000       0.68750000       0.18750000 </v>
   <v>       0.43750000       0.18750000       0.68750000 </v>
   <v>       0.93750000       0.18750000       0.68750000 </v>
   <v>       0.43750000       0.68750000       0.68750000 </v>
   <v>       0.93750000       0.68750000       0.68750000 </v>
   <v>       0.18750000       0.43750000       0.18750000 </v>
   <v>       0.68750000       0.43750000       0.18750000 </v>
   <v>       0.18750000       0.93750000       0.18750000 </v>
   <v>       0.68750000       0.93750000       0.18750000 </v>
   <v>       0.18750000       0.43750000       0.68750000 </v>
   <v>       0.68750000       0.43750000       0.68750000 </v>
   <v>       0.18750000       0.93750000       0.68750000 </v>
   <v>       0.68750000       0.93750000       0.68750000 </v>
   <v>       0.18750000       0.18750000       0.43750000 </v>
   <v>       0.68750000       0.18750000       0.43750000 </v>
   <v>       0.18750000       0.68750000       0.43750000 </v>
   <v>       0.68750000       0.68750000       0.43750000 </v>
   <v>       0.18750000       0.18750000       0.93750000 </v>
   <v>       0.68750000       0.18750000       0.93750000 </v>
   <v>       0.18750000       0.68750000       0.93750000 </v>
   <v>       0.68750000       0.68750000       0.93750000 </v>
   <v>       0.06250000       0.05975589       0.06250000 </v>
   <v>       0.56250000       0.06250000       0.06250000 </v>
   <v>       0.06250000       0.56250000       0.06250000 </v>
   <v>       0.56250000       0.56250000       0.06250000 </v>
   <v>       0.06250000       0.06250000       0.56250000 </v>
   <v>       0.56250000       0.06250000       0.56250000 </v>
   <v>       0.06250000       0.56250000       0.56250000 </v>
   <v>       0.56250000       0.56250000       0.56250000 </v>
   <v>       0.06250000       0.31250000       0.31250000 </v>
   <v>       0.56250000       0.31250000       0.31250000 </v>
   <v>       0.06250000       0.81250000       0.31250000 </v>
   <v>       0.56250000       0.81250000       0.31250000 </v>
   <v>       0.06250000       0.31250000       0.81250000 </v>
   <v>       0.56250000       0.31250000       0.81250000 </v>
   <v>       0.06250000       0.81250000       0.81250000 </v>
   <v>       0.56250000       0.81250000       0.81250000 </v>
   <v>       0.31250000       0.06250000       0.31250000 </v>
   <v>       0.81250000       0.06250000       0.31250000 </v>
   <v>       0.31250000       0.56250000       0.31250000 </v>
   <v>       0.81250000       0.56250000       0.31250000 </v>
   <v>       0.31250000       0.06250000       0.81250000 </v>
   <v>       0.81250000       0.06250000       0.81250000 </v>
   <v>       0.31250000       0.56250000       0.81250000 </v>
   <v>       0.81250000       0.56250000       0.81250000 </v>
   <v>       0.31250000       0.31250000       0.06250000 </v>
   <v>       0.81250000       0.31250000       0.06250000 </v>
   <v>       0.31250000       0.81250000       0.06250000 </v>
   <v>       0.81250000       0.81250000       0.06250000 </v>
   <v>       0.31250000       0.31250000       0.56250000 </v>
   <v>       0.81250000       0.31250000       0.56250000 </v>
   <v>       0.31250000       0.81250000       0.56250000 </v>
   <v>       0.81250000       0.81250000       0.56250000 </v>
  </varray>
 </structure>
 <calculation>
  <scstep>
   <time name="dav">    3.17    3.17</time>
   <time name="total">    3.35    3.36</time>
   <energy>
    <i name="alphaZ">    105.52440745 </i>
    <i name="ewald">  -7265.47101130 </i>
    <i name="hartreedc">   -361.71263488 </i>
    <i name="XCdc">   -597.75714164 </i>
    <i name="pawpsdc">   5639.92317535 </i>
    <i name="pawaedc">  -4513.95313856 </i>
    <i name="eentropy">     -0.00864914 </i>
    <i name="bandstr">    858.13141789 </i>
    <i name="atom">   6596.14994790 </i>
    <i name="e_fr_energy">    460.82637308 </i>
    <i name="e_wo_entrp">    460.83502221 </i>
    <i name="e_0_energy">    460.83069765 </i>
   </energy>
  </scstep>
  <scstep>
   <time name="dav">    3.59    3.59</time>
   <time name="total">    3.59    3.60</time>
   <energy>
    <i name="e_fr_energy">   -298.35670463 </i>
    <i name="e_wo_entrp">   -298.35670463 </i>
    <i name="e_0_energy">   -298.35670463 </i>
   </energy>
  </scstep>
  <scstep>
   <time name="dav">    3.68    3.68</time>
   <time name="total">    3.68    3.69</time>
   <energy>
    <i name="e_fr_energy">   -350.96454152 </i>
    <i name="e_wo_entrp">   -350.96454152 </i>
    <i name="e_0_energy">   -350.96454152 </i>
   </energy>
  </scstep>
  <scstep>
   <time name="dav">    3.64    3.64</time>
   <time name="total">    3.64    3.64</time>
   <energy>
    <i name="e_fr_energy">   -352.26344316 </i>
    <i name="e_wo_entrp">   -352.26344316 </i>
    <i name="e_0_energy">   -352.26344316 </i>
   </energy>
  </scstep>
  <scstep>
   <time name="dav">    3.66    3.66</time>
   <time name="total">    3.88    3.95</time>
   <energy>
    <i name="e_fr_energy">   -352.31313669 </i>
    <i name="e_wo_entrp">   -352.31313669 </i>
    <i name="e_0_energy">   -352.31313669 </i>
   </energy>
  </scstep>
  <scstep>
   <time name="dav">    3.51    3.51</time>
   <time name="total">    3.91    3.92</time>
   <energy>
    <i name="e_fr_energy">   -348.58461247 </i>
    <i name="e_wo_entrp">   -348.58461247 </i>
    <i name="e_0_energy">   -348.58461247 </i>
   </energy>
  </scstep>
  <scstep>
   <time name="dav">    3.51    3.51</time>
   <time name="total">    3.91    3.92</time>
   <energy>
    <i name="e_fr_energy">   -346.87182403 </i>
    <i name="e_wo_entrp">   -346.87182403 </i>
    <i name="e_0_energy">   -346.87182403 </i>
   </energy>
  </scstep>
  <scstep>
   <time name="dav">    3.56    3.57</time>
   <time name="total">    3.96    3.97</time>
   <energy>
    <i name="e_fr_energy">   -346.89818316 </i>
    <i name="e_wo_entrp">   -346.89818316 </i>
    <i name="e_0_energy">   -346.89818316 </i>
   </energy>
  </scstep>
  <scstep>
   <time name="dav">    3.71    3.71</time>
   <time name="total">    4.12    4.12</time>
   <energy>
    <i name="e_fr_energy">   -346.90483618 </i>
    <i name="e_wo_entrp">   -346.90483618 </i>
    <i name="e_0_energy">   -346.90483618 </i>
   </energy>
  </scstep>
  <scstep>
   <time name="dav">    3.44    3.44</time>
   <time name="total">    3.84    3.85</time>
   <energy>
    <i name="e_fr_energy">   -346.90690005 </i>
    <i name="e_wo_entrp">   -346.90690005 </i>
    <i name="e_0_energy">   -346.90690005 </i>
   </energy>
  </scstep>
  <scstep>
   <time name="dav">    3.60    3.60</time>
   <time name="total">    4.00    4.00</time>
   <energy>
    <i name="e_fr_energy">   -346.90687461 </i>
    <i name="e_wo_entrp">   -346.90687461 </i>
    <i name="e_0_energy">   -346.90687461 </i>
   </energy>
  </scstep>
  <scstep>
   <time name="dav">    3.58    3.58</time>
   <time name="total">    3.98    3.98</time>
   <energy>
    <i name="e_fr_energy">   -346.90688977 </i>
    <i name="e_wo_entrp">   -346.90688977 </i>
    <i name="e_0_energy">   -346.90688977 </i>
   </energy>
  </scstep>
  <scstep>
   <time name="dav">    3.56    3.56</time>
   <time name="total">    3.97    3.97</time>
   <energy>
    <i name="e_fr_energy">   -346.90689035 </i>
    <i name="e_wo_entrp">   -346.90689035 </i>
    <i name="e_0_energy">   -346.90689035 </i>
   </energy>
  </scstep>
  <scstep>
   <time name="dav">    3.68    3.68</time>
   <time name="total">    4.08    4.09</time>
   <energy>
    <i name="e_fr_energy">   -346.90689088 </i>
    <i name="e_wo_entrp">   -346.90689088 </i>
    <i name="e_0_energy">   -346.90689088 </i>
   </energy>
  </scstep>
  <scstep>
   <time name="dav">    3.28    3.28</time>
   <time name="total">    3.68    3.69</time>
   <energy>
    <i name="e_fr_energy">   -346.90689061 </i>
    <i name="e_wo_entrp">   -346.90689061 </i>
    <i name="e_0_energy">   -346.90689061 </i>
   </energy>
  </scstep>
  <scstep>
   <time name="dav">    2.48    2.48</time>
   <time name="total">    2.88    2.89</time>
   <energy>
    <i name="e_fr_energy">   -346.90689071 </i>
    <i name="e_wo_entrp">   -346.90689071 </i>
    <i name="e_0_energy">   -346.90689071 </i>
   </energy>
  </scstep>
  <scstep>
   <time name="dav">    2.44    2.44</time>
   <time name="total">    2.84    2.85</time>
   <energy>
    <i name="e_fr_energy">   -346.90689069 </i>
    <i name="e_wo_entrp">   -346.90689069 </i>
    <i name="e_0_energy">   -346.90689069 </i>
   </energy>
  </scstep>
  <scstep>
   <time name="dav">    2.44    2.44</time>
   <time name="total">    2.84    2.85</time>
   <energy>
    <i name="e_fr_energy">   -346.90689071 </i>
    <i name="e_wo_entrp">   -346.90689071 </i>
    <i name="e_0_energy">   -346.90689071 </i>
   </energy>
  </scstep>
  <scstep>
   <time name="dav">    2.44    2.44</time>
   <time name="total">    2.62    2.63</time>
   <energy>
    <i name="alphaZ">    105.52440745 </i>
    <i name="ewald">  -7265.47101130 </i>
    <i name="hartreedc">   -485.14347257 </i>
    <i name="XCdc">   -577.61228928 </i>
    <i name="pawpsdc">  27883.44049378 </i>
    <i name="pawaedc"> -26764.15842209 </i>
    <i name="eentropy">      0.00000000 </i>
    <i name="bandstr">    160.36345540 </i>
    <i name="atom">   6596.14994790 </i>
    <i name="e_fr_energy">   -346.90689071 </i>
    <i name="e_wo_entrp">   -346.90689071 </i>
    <i name="e_0_energy">   -346.90689071 </i>
   </energy>
  </scstep>
  <structure>
   <crystal>
    <varray name="basis" >
     <v>      10.93252578       0.00000000       0.00000000 </v>
     <v>       0.00000000      10.93252578       0.00000000 </v>
     <v>       0.00000000       0.00000000      10.93252578 </v>
    </varray>
    <i name="volume">   1306.65679237 </i>
    <varray name="rec_basis" >
     <v>       0.09147017       0.00000000       0.00000000 </v>
     <v>       0.00000000       0.09147017       0.00000000 </v>
     <v>       0.00000000       0.00000000       0.09147017 </v>
    </varray>
   </crystal>
   <varray name="positions" >
    <v>       0.44024411       0.43750000       0.43750000 </v>
    <v>       0.93750000       0.43750000       0.43750000 </v>
    <v>       0.43750000       0.93750000       0.43750000 </v>
    <v>       0.93750000       0.93750000       0.43750000 </v>
    <v>       0.43750000       0.43750000       0.93750000 </v>
    <v>       0.93750000       0.43750000       0.93750000 </v>
    <v>       0.43750000       0.93750000       0.93750000 </v>
    <v>       0.93750000       0.93750000       0.93750000 </v>
    <v>       0.43750000       0.18750000       0.18750000 </v>
    <v>       0.93750000       0.18750000       0.18750000 </v>
    <v>       0.43750000       0.68750000       0.18750000 </v>
    <v>       0.93750000       0.68750000       0.18750000 </v>
    <v>       0.43750000       0.18750000       0.68750000 </v>
    <v>       0.93750000       0.18750000       0.68750000 </v>
    <v>       0.43750000       0.68750000       0.68750000 </v>
    <v>       0.93750000       0.68750000       0.68750000 </v>
    <v>       0.18750000       0.43750000       0.18750000 </v>
    <v>       0.68750000       0.43750000       0.18750000 </v>
    <v>       0.18750000       0.93750000       0.18750000 </v>
    <v>       0.68750000       0.93750000       0.18750000 </v>
    <v>       0.18750000       0.43750000       0.68750000 </v>
    <v>       0.68750000       0.43750000       0.68750000 </v>
    <v>       0.18750000       0.93750000       0.68750000 </v>
    <v>       0.68750000       0.93750000       0.68750000 </v>
    <v>       0.18750000       0.18750000       0.43750000 </v>
    <v>       0.68750000       0.18750000       0.43750000 </v>
    <v>       0.18750000       0.68750000       0.43750000 </v>
    <v>       0.68750000       0.68750000       0.43750000 </v>
    <v>       0.18750000       0.18750000       0.93750000 </v>
    <v>       0.68750000       0.18750000       0.93750000 </v>
    <v>       0.18750000       0.68750000       0.93750000 </v>
    <v>       0.68750000       0.68750000       0.93750000 </v>
    <v>       0.06250000       0.05975589       0.06250000 </v>
    <v>       0.56250000       0.06250000       0.06250000 </v>
    <v>       0.06250000       0.56250000       0.06250000 </v>
    <v>       0.56250000       0.56250000       0.06250000 </v>
    <v>       0.06250000       0.06250000       0.56250000 </v>
    <v>       0.56250000       0.06250000       0.56250000 </v>
    <v>       0.06250000       0.56250000       0.56250000 </v>
    <v>       0.56250000       0.56250000       0.56250000 </v>
    <v>       0.06250000       0.31250000       0.31250000 </v>
    <v>       0.56250000       0.31250000       0.31250000 </v>
    <v>       0.06250000       0.81250000       0.31250000 </v>
    <v>       0.56250000       0.81250000       0.31250000 </v>
    <v>       0.06250000       0.31250000       0.81250000 </v>
    <v>       0.56250000       0.31250000       0.81250000 </v>
    <v>       0.06250000       0.81250000       0.81250000 </v>
    <v>       0.56250000       0.81250000       0.81250000 </v>
    <v>       0.31250000       0.06250000       0.31250000 </v>
    <v>       0.81250000       0.06250000       0.31250000 </v>
    <v>       0.31250000       0.56250000       0.31250000 </v>
    <v>       0.81250000       0.56250000       0.31250000 </v>
    <v>       0.31250000       0.06250000       0.81250000 </v>
    <v>       0.81250000       0.06250000       0.81250000 </v>
    <v>       0.31250000       0.56250000       0.81250000 </v>
    <v>       0.81250000       0.56250000       0.81250000 </v>
    <v>       0.31250000       0.31250000       0.06250000 </v>
    <v>       0.81250000       0.31250000       0.06250000 </v>
    <v>       0.31250000       0.81250000       0.06250000 </v>
    <v>       0.81250000       0.81250000       0.06250000 </v>
    <v>       0.31250000       0.31250000       0.56250000 </v>
    <v>       0.81250000       0.31250000       0.56250000 </v>
    <v>       0.31250000       0.81250000       0.56250000 </v>
    <v>       0.81250000       0.81250000       0.56250000 </v>
   </varray>
  </structure>
  <varray name="forces" >
   <v>      -0.38790281       0.00052641      -0.00074395 </v>
   <v>      -0.00010325      -0.00061733      -0.00060064 </v>
   <v>       0.00063010      -0.00621352      -0.00068436 </v>
   <v>      -0.00138726       0.00147688      -0.00092618 </v>
   <v>       0.00071779      -0.00061786      -0.00065299 </v>
   <v>      -0.00108555       0.00027545      -0.00091132 </v>
   <v>      -0.01247842       0.00147988      -0.00121495 </v>
   <v>      -0.06553765      -0.09580419      -0.06610644 </v>
   <v>      -0.01199205       0.00420675       0.00152301 </v>
   <v>       0.06093168      -0.09284840      -0.06073232 </v>
   <v>      -0.01213639       0.00200813      -0.00337762 </v>
   <v>       0.00090251       0.00050980      -0.00113593 </v>
   <v>      -0.01209854      -0.00881958       0.00200282 </v>
   <v>       0.00124492       0.00119855      -0.00065578 </v>
   <v>      -0.01213606      -0.00223764      -0.00351551 </v>
   <v>       0.00068149      -0.00088915      -0.00086517 </v>
   <v>       0.00655609      -0.00239562       0.00647066 </v>
   <v>       0.00640775      -0.00338858      -0.00503748 </v>
   <v>       0.06712548      -0.09603620       0.06425453 </v>
   <v>       0.00194688       0.00124588       0.00305896 </v>
   <v>       0.00629693       0.00205423      -0.00496050 </v>
   <v>       0.00655824       0.00330368       0.00644404 </v>
   <v>       0.00222972       0.00170656       0.00278654 </v>
   <v>       0.00170973      -0.00598230      -0.00116253 </v>
   <v>       0.00440115       0.00699501      -0.00178100 </v>
   <v>       0.00512833      -0.01183196      -0.00209050 </v>
   <v>       0.00493836      -0.00622146       0.00331027 </v>
   <v>       0.00505685       0.00622425       0.00351650 </v>
   <v>      -0.05994825      -0.09493039       0.06073446 </v>
   <v>       0.00013214       0.00327940       0.00101735 </v>
   <v>       0.00011367       0.00213882       0.00113455 </v>
   <v>       0.00038315      -0.00250875       0.00093683 </v>
   <v>      -0.00052641       0.38790281       0.00074395 </v>
   <v>       0.00621352      -0.00063010       0.00068436 </v>
   <v>       0.00061733       0.00010325       0.00060064 </v>
   <v>      -0.00147688       0.00138726       0.00092618 </v>
   <v>       0.00061786      -0.00071779       0.00065299 </v>
   <v>      -0.00147988       0.01247842       0.00121495 </v>
   <v>      -0.00027545       0.00108555       0.00091132 </v>
   <v>       0.09580419       0.06553765       0.06610644 </v>
   <v>       0.00239562      -0.00655609      -0.00647066 </v>
   <v>       0.09603620      -0.06712548      -0.06425453 </v>
   <v>       0.00338858      -0.00640775       0.00503748 </v>
   <v>      -0.00124588      -0.00194688      -0.00305896 </v>
   <v>      -0.00205423      -0.00629693       0.00496050 </v>
   <v>      -0.00170656      -0.00222972      -0.00278654 </v>
   <v>      -0.00330368      -0.00655824      -0.00644404 </v>
   <v>       0.00598230      -0.00170973       0.00116253 </v>
   <v>      -0.00420675       0.01199205      -0.00152301 </v>
   <v>      -0.00200813       0.01213639       0.00337762 </v>
   <v>       0.09284840      -0.06093168       0.06073232 </v>
   <v>      -0.00050980      -0.00090251       0.00113593 </v>
   <v>       0.00881958       0.01209854      -0.00200282 </v>
   <v>       0.00223764       0.01213606       0.00351551 </v>
   <v>      -0.00119855      -0.00124492       0.00065578 </v>
   <v>       0.00088915      -0.00068149       0.00086517 </v>
   <v>      -0.00699501      -0.00440115       0.00178100 </v>
   <v>       0.00622146      -0.00493836      -0.00331027 </v>
   <v>       0.01183196      -0.00512833       0.00209050 </v>
   <v>      -0.00622425      -0.00505685      -0.00351650 </v>
   <v>       0.09493039       0.05994825      -0.06073446 </v>
   <v>      -0.00213882      -0.00011367      -0.00113455 </v>
   <v>      -0.00327940      -0.00013214      -0.00101735 </v>
   <v>       0.00250875      -0.00038315      -0.00093683 </v>
  </varray>
  <varray name="stress" >
   <v>       0.00160778       0.00000170       0.33481329 </v>
   <v>       0.00000170       0.00160778       0.33481329 </v>
   <v>       0.33481329       0.33481329       0.02087577 </v>
  </varray>
  <energy>
   <i name="e_fr_energy">   -346.90689071 </i>
   <i name="e_wo_entrp">   -346.90689071 </i>
   <i name="e_0_energy">      0.00000000 </i>
  </energy>
  <time name="totalsc">   76.94   77.17</time>
  <eigenvalues>
   <array>
    <dimension dim="1">band</dimension>
    <dimension dim="2">kpoint</dimension>
    <dimension dim="3">spin</dimension>
    <field>eigene</field>
    <field>occ</field>
    <set>
     <set comment="spin 1">
      <set comment="kpoint 1">
       <r>   -5.9931    1.0000 </r>
       <r>   -5.4693    1.0000 </r>
       <r>   -5.4637    1.0000 </r>
       <r>   -5.4616    1.0000 </r>
       <r>   -4.9697    1.0000 </r>
       <r>   -4.9644    1.0000 </r>
       <r>   -4.9624    1.0000 </r>
       <r>   -4.5313    1.0000 </r>
       <r>   -4.4364    1.0000 </r>
       <r>   -4.4313    1.0000 </r>
       <r>   -4.4285    1.0000 </r>
       <r>   -4.0290    1.0000 </r>
       <r>   -4.0172    1.0000 </r>
       <r>   -4.0155    1.0000 </r>
       <r>   -4.0152    1.0000 </r>
       <r>   -4.0138    1.0000 </r>
       <r>   -4.0108    1.0000 </r>
       <r>   -3.8295    1.0000 </r>
       <r>   -3.8237    1.0000 </r>
       <r>   -3.8217    1.0000 </r>
       <r>   -3.3307    1.0000 </r>
       <r>   -3.3270    1.0000 </r>
       <r>   -3.3220    1.0000 </r>
       <r>   -2.9649    1.0000 </r>
       <r>   -2.9577    1.0000 </r>
       <r>   -2.9559    1.0000 </r>
       <r>   -2.8018    1.0000 </r>
       <r>   -2.7918    1.0000 </r>
       <r>   -2.7899    1.0000 </r>
       <r>   -2.7894    1.0000 </r>
       <r>   -2.7880    1.0000 </r>
       <r>   -2.7860    1.0000 </r>
       <r>   -1.2560    1.0000 </r>
       <r>   -1.2512    1.0000 </r>
       <r>   -1.2478    1.0000 </r>
       <r>   -1.2464    1.0000 </r>
       <r>   -1.2461    1.0000 </r>
       <r>   -1.2428    1.0000 </r>
       <r>   -1.1560    1.0000 </r>
       <r>   -1.1485    1.0000 </r>
       <r>   -1.1464    1.0000 </r>
       <r>   -1.0346    1.0000 </r>
       <r>   -1.0319    1.0000 </r>
       <r>   -1.0266    1.0000 </r>
       <r>   -0.9604    1.0000 </r>
       <r>   -0.9465    1.0000 </r>
       <r>   -0.9454    1.0000 </r>
       <r>   -0.2481    1.0000 </r>
       <r>   -0.1670    1.0000 </r>
       <r>   -0.1614    1.0000 </r>
       <r>   -0.1594    1.0000 </r>
       <r>   -0.1576    1.0000 </r>
       <r>   -0.1562    1.0000 </r>
       <r>   -0.1505    1.0000 </r>
       <r>    0.7049    1.0000 </r>
       <r>    0.7144    1.0000 </r>
       <r>    0.7167    1.0000 </r>
       <r>    1.0437    1.0000 </r>
       <r>    1.0476    1.0000 </r>
       <r>    1.0501    1.0000 </r>
       <r>    1.6531    1.0000 </r>
       <r>    1.6542    1.0000 </r>
       <r>    1.6567    1.0000 </r>
       <r>    1.6572    1.0000 </r>
       <r>    1.6596    1.0000 </r>
       <r>    1.6612    1.0000 </r>
       <r>    1.7146    1.0000 </r>
       <r>    1.7171    1.0000 </r>
       <r>    1.7201    1.0000 </r>
       <r>    2.2626    1.0000 </r>
       <r>    2.2671    1.0000 </r>
       <r>    2.2678    1.0000 </r>
       <r>    2.3674    1.0000 </r>
       <r>    2.3681    1.0000 </r>
       <r>    2.3709    1.0000 </r>
       <r>    2.3720    1.0000 </r>
       <r>    2.3764    1.0000 </r>
       <r>    2.3773    1.0000 </r>
       <r>    2.4240    1.0000 </r>
       <r>    2.4283    1.0000 </r>
       <r>    2.4297    1.0000 </r>
       <r>    2.7281    1.0000 </r>
       <r>    2.7342    1.0000 </r>
       <r>    2.7343    1.0000 </r>
       <r>    2.7355    1.0000 </r>
       <r>    2.7366    1.0000 </r>
       <r>    2.7399    1.0000 </r>
       <r>    2.9996    1.0000 </r>
       <r>    2.9999    1.0000 </r>
       <r>    3.0017    1.0000 </r>
       <r>    3.0116    1.0000 </r>
       <r>    3.0147    1.0000 </r>
       <r>    3.0177    1.0000 </r>
       <r>    3.3559    1.0000 </r>
       <r>    3.3617    1.0000 </r>
       <r>    3.3631    1.0000 </r>
       <r>    3.3759    1.0000 </r>
       <r>    3.3835    1.0000 </r>
       <r>    3.3844    1.0000 </r>
       <r>    3.4661    1.0000 </r>
       <r>    3.4669    1.0000 </r>
       <r>    3.4701    1.0000 </r>
       <r>    3.7272    1.0000 </r>
       <r>    3.7381    1.0000 </r>
       <r>    3.7386    1.0000 </r>
       <r>    3.7421    1.0000 </r>
       <r>    3.7425    1.0000 </r>
       <r>    3.7435    1.0000 </r>
       <r>    3.7804    1.0000 </r>
       <r>    3.7808    1.0000 </r>
       <r>    3.7847    1.0000 </r>
       <r>    4.0367    1.0000 </r>
       <r>    4.0984    1.0000 </r>
       <r>    4.0996    1.0000 </r>
       <r>    4.1026    1.0000 </r>
       <r>    4.3414    1.0000 </r>
       <r>    4.3416    1.0000 </r>
       <r>    4.3459    1.0000 </r>
       <r>    4.3936    1.0000 </r>
       <r>    4.4047    1.0000 </r>
       <r>    4.4054    1.0000 </r>
       <r>    4.5617    1.0000 </r>
       <r>    4.5664    1.0000 </r>
       <r>    4.8704    1.0000 </r>
       <r>    4.8710    1.0000 </r>
       <r>    4.8768    1.0000 </r>
       <r>    5.3493    1.0000 </r>
       <r>    5.3547    1.0000 </r>
       <r>    6.5620    0.0000 </r>
       <r>    6.5659    0.0000 </r>
       <r>    6.5671    0.0000 </r>
       <r>    7.0021    0.0000 </r>
       <r>    7.0047    0.0000 </r>
       <r>    7.0087    0.0000 </r>
       <r>    7.2351    0.0000 </r>
       <r>    7.4895    0.0000 </r>
       <r>    7.4918    0.0000 </r>
       <r>    7.4955    0.0000 </r>
       <r>    7.6152    0.0000 </r>
       <r>    7.6167    0.0000 </r>
       <r>    7.6228    0.0000 </r>
       <r>    7.7779    0.0000 </r>
       <r>    7.7784    0.0000 </r>
       <r>    7.7837    0.0000 </r>
       <r>    7.8003    0.0000 </r>
       <r>    7.8012    0.0000 </r>
       <r>    7.8047    0.0000 </r>
       <r>    8.0215    0.0000 </r>
       <r>    8.0236    0.0000 </r>
       <r>    8.0307    0.0000 </r>
       <r>    8.0310    0.0000 </r>
       <r>    8.0315    0.0000 </r>
       <r>    8.0350    0.0000 </r>
       <r>    8.0833    0.0000 </r>
       <r>    8.2936    0.0000 </r>
       <r>    8.2940    0.0000 </r>
       <r>    8.2979    0.0000 </r>
       <r>    8.4935    0.0000 </r>
       <r>    8.5011    0.0000 </r>
       <r>    8.5023    0.0000 </r>
       <r>    8.5030    0.0000 </r>
       <r>    8.5098    0.0000 </r>
       <r>    8.5157    0.0000 </r>
       <r>    8.5457    0.0000 </r>
      </set>
      <set comment="kpoint 2">
       <r>   -5.9932    1.0000 </r>
       <r>   -5.4680    1.0000 </r>
       <r>   -5.4640    1.0000 </r>
       <r>   -5.4623    1.0000 </r>
       <r>   -4.9687    1.0000 </r>
       <r>   -4.9648    1.0000 </r>
       <r>   -4.9631    1.0000 </r>
       <r>   -4.5322    1.0000 </r>
       <r>   -4.4359    1.0000 </r>
       <r>   -4.4315    1.0000 </r>
       <r>   -4.4299    1.0000 </r>
       <r>   -4.0259    1.0000 </r>
       <r>   -4.0179    1.0000 </r>
       <r>   -4.0163    1.0000 </r>
       <r>   -4.0162    1.0000 </r>
       <r>   -4.0140    1.0000 </r>
       <r>   -4.0084    1.0000 </r>
       <r>   -3.8286    1.0000 </r>
       <r>   -3.8243    1.0000 </r>
       <r>   -3.8200    1.0000 </r>
       <r>   -3.3326    1.0000 </r>
       <r>   -3.3268    1.0000 </r>
       <r>   -3.3256    1.0000 </r>
       <r>   -2.9639    1.0000 </r>
       <r>   -2.9591    1.0000 </r>
       <r>   -2.9544    1.0000 </r>
       <r>   -2.7999    1.0000 </r>
       <r>   -2.7927    1.0000 </r>
       <r>   -2.7912    1.0000 </r>
       <r>   -2.7907    1.0000 </r>
       <r>   -2.7880    1.0000 </r>
       <r>   -2.7826    1.0000 </r>
       <r>   -1.2594    1.0000 </r>
       <r>   -1.2513    1.0000 </r>
       <r>   -1.2488    1.0000 </r>
       <r>   -1.2484    1.0000 </r>
       <r>   -1.2453    1.0000 </r>
       <r>   -1.2399    1.0000 </r>
       <r>   -1.1563    1.0000 </r>
       <r>   -1.1510    1.0000 </r>
       <r>   -1.1461    1.0000 </r>
       <r>   -1.0379    1.0000 </r>
       <r>   -1.0327    1.0000 </r>
       <r>   -1.0272    1.0000 </r>
       <r>   -0.9519    1.0000 </r>
       <r>   -0.9459    1.0000 </r>
       <r>   -0.9424    1.0000 </r>
       <r>   -0.2446    1.0000 </r>
       <r>   -0.1709    1.0000 </r>
       <r>   -0.1630    1.0000 </r>
       <r>   -0.1601    1.0000 </r>
       <r>   -0.1595    1.0000 </r>
       <r>   -0.1561    1.0000 </r>
       <r>   -0.1511    1.0000 </r>
       <r>    0.7092    1.0000 </r>
       <r>    0.7149    1.0000 </r>
       <r>    0.7187    1.0000 </r>
       <r>    1.0429    1.0000 </r>
       <r>    1.0474    1.0000 </r>
       <r>    1.0510    1.0000 </r>
       <r>    1.6524    1.0000 </r>
       <r>    1.6542    1.0000 </r>
       <r>    1.6569    1.0000 </r>
       <r>    1.6581    1.0000 </r>
       <r>    1.6590    1.0000 </r>
       <r>    1.6610    1.0000 </r>
       <r>    1.7131    1.0000 </r>
       <r>    1.7163    1.0000 </r>
       <r>    1.7189    1.0000 </r>
       <r>    2.2650    1.0000 </r>
       <r>    2.2676    1.0000 </r>
       <r>    2.2705    1.0000 </r>
       <r>    2.3649    1.0000 </r>
       <r>    2.3674    1.0000 </r>
       <r>    2.3706    1.0000 </r>
       <r>    2.3726    1.0000 </r>
       <r>    2.3740    1.0000 </r>
       <r>    2.3755    1.0000 </r>
       <r>    2.4205    1.0000 </r>
       <r>    2.4252    1.0000 </r>
       <r>    2.4294    1.0000 </r>
       <r>    2.7283    1.0000 </r>
       <r>    2.7333    1.0000 </r>
       <r>    2.7353    1.0000 </r>
       <r>    2.7357    1.0000 </r>
       <r>    2.7374    1.0000 </r>
       <r>    2.7397    1.0000 </r>
       <r>    2.9967    1.0000 </r>
       <r>    2.9999    1.0000 </r>
       <r>    3.0010    1.0000 </r>
       <r>    3.0094    1.0000 </r>
       <r>    3.0137    1.0000 </r>
       <r>    3.0175    1.0000 </r>
       <r>    3.3590    1.0000 </r>
       <r>    3.3619    1.0000 </r>
       <r>    3.3647    1.0000 </r>
       <r>    3.3802    1.0000 </r>
       <r>    3.3847    1.0000 </r>
       <r>    3.3885    1.0000 </r>
       <r>    3.4632    1.0000 </r>
       <r>    3.4672    1.0000 </r>
       <r>    3.4695    1.0000 </r>
       <r>    3.7332    1.0000 </r>
       <r>    3.7399    1.0000 </r>
       <r>    3.7412    1.0000 </r>
       <r>    3.7424    1.0000 </r>
       <r>    3.7434    1.0000 </r>
       <r>    3.7472    1.0000 </r>
       <r>    3.7769    1.0000 </r>
       <r>    3.7813    1.0000 </r>
       <r>    3.7843    1.0000 </r>
       <r>    4.0405    1.0000 </r>
       <r>    4.0946    1.0000 </r>
       <r>    4.0983    1.0000 </r>
       <r>    4.1009    1.0000 </r>
       <r>    4.3371    1.0000 </r>
       <r>    4.3414    1.0000 </r>
       <r>    4.3444    1.0000 </r>
       <r>    4.4016    1.0000 </r>
       <r>    4.4060    1.0000 </r>
       <r>    4.4103    1.0000 </r>
       <r>    4.5588    1.0000 </r>
       <r>    4.5670    1.0000 </r>
       <r>    4.8649    1.0000 </r>
       <r>    4.8705    1.0000 </r>
       <r>    4.8748    1.0000 </r>
       <r>    5.3451    1.0000 </r>
       <r>    5.3544    1.0000 </r>
       <r>    6.5597    0.0000 </r>
       <r>    6.5638    0.0000 </r>
       <r>    6.5666    0.0000 </r>
       <r>    6.9989    0.0000 </r>
       <r>    7.0047    0.0000 </r>
       <r>    7.0096    0.0000 </r>
       <r>    7.2337    0.0000 </r>
       <r>    7.4859    0.0000 </r>
       <r>    7.4907    0.0000 </r>
       <r>    7.4954    0.0000 </r>
       <r>    7.6152    0.0000 </r>
       <r>    7.6196    0.0000 </r>
       <r>    7.6238    0.0000 </r>
       <r>    7.7758    0.0000 </r>
       <r>    7.7797    0.0000 </r>
       <r>    7.7835    0.0000 </r>
       <r>    7.7977    0.0000 </r>
       <r>    7.8022    0.0000 </r>
       <r>    7.8041    0.0000 </r>
       <r>    8.0229    0.0000 </r>
       <r>    8.0286    0.0000 </r>
       <r>    8.0311    0.0000 </r>
       <r>    8.0312    0.0000 </r>
       <r>    8.0331    0.0000 </r>
       <r>    8.0364    0.0000 </r>
       <r>    8.0813    0.0000 </r>
       <r>    8.2914    0.0000 </r>
       <r>    8.2951    0.0000 </r>
       <r>    8.2985    0.0000 </r>
       <r>    8.4912    0.0000 </r>
       <r>    8.5000    0.0000 </r>
       <r>    8.5021    0.0000 </r>
       <r>    8.5074    0.0000 </r>
       <r>    8.5084    0.0000 </r>
       <r>    8.5225    0.0000 </r>
       <r>    8.5408    0.0000 </r>
      </set>
      <set comment="kpoint 3">
       <r>   -5.9932    1.0000 </r>
       <r>   -5.4681    1.0000 </r>
       <r>   -5.4643    1.0000 </r>
       <r>   -5.4617    1.0000 </r>
       <r>   -4.9688    1.0000 </r>
       <r>   -4.9650    1.0000 </r>
       <r>   -4.9628    1.0000 </r>
       <r>   -4.5333    1.0000 </r>
       <r>   -4.4364    1.0000 </r>
       <r>   -4.4323    1.0000 </r>
       <r>   -4.4296    1.0000 </r>
       <r>   -4.0222    1.0000 </r>
       <r>   -4.0194    1.0000 </r>
       <r>   -4.0168    1.0000 </r>
       <r>   -4.0162    1.0000 </r>
       <r>   -4.0126    1.0000 </r>
       <r>   -4.0088    1.0000 </r>
       <r>   -3.8270    1.0000 </r>
       <r>   -3.8248    1.0000 </r>
       <r>   -3.8191    1.0000 </r>
       <r>   -3.3349    1.0000 </r>
       <r>   -3.3290    1.0000 </r>
       <r>   -3.3264    1.0000 </r>
       <r>   -2.9622    1.0000 </r>
       <r>   -2.9607    1.0000 </r>
       <r>   -2.9535    1.0000 </r>
       <r>   -2.7959    1.0000 </r>
       <r>   -2.7947    1.0000 </r>
       <r>   -2.7911    1.0000 </r>
       <r>   -2.7907    1.0000 </r>
       <r>   -2.7885    1.0000 </r>
       <r>   -2.7824    1.0000 </r>
       <r>   -1.2567    1.0000 </r>
       <r>   -1.2539    1.0000 </r>
       <r>   -1.2492    1.0000 </r>
       <r>   -1.2486    1.0000 </r>
       <r>   -1.2475    1.0000 </r>
       <r>   -1.2399    1.0000 </r>
       <r>   -1.1560    1.0000 </r>
       <r>   -1.1536    1.0000 </r>
       <r>   -1.1464    1.0000 </r>
       <r>   -1.0384    1.0000 </r>
       <r>   -1.0335    1.0000 </r>
       <r>   -1.0309    1.0000 </r>
       <r>   -0.9471    1.0000 </r>
       <r>   -0.9460    1.0000 </r>
       <r>   -0.9347    1.0000 </r>
       <r>   -0.2410    1.0000 </r>
       <r>   -0.1701    1.0000 </r>
       <r>   -0.1670    1.0000 </r>
       <r>   -0.1603    1.0000 </r>
       <r>   -0.1599    1.0000 </r>
       <r>   -0.1589    1.0000 </r>
       <r>   -0.1531    1.0000 </r>
       <r>    0.7120    1.0000 </r>
       <r>    0.7147    1.0000 </r>
       <r>    0.7230    1.0000 </r>
       <r>    1.0440    1.0000 </r>
       <r>    1.0466    1.0000 </r>
       <r>    1.0505    1.0000 </r>
       <r>    1.6512    1.0000 </r>
       <r>    1.6550    1.0000 </r>
       <r>    1.6564    1.0000 </r>
       <r>    1.6571    1.0000 </r>
       <r>    1.6594    1.0000 </r>
       <r>    1.6614    1.0000 </r>
       <r>    1.7124    1.0000 </r>
       <r>    1.7146    1.0000 </r>
       <r>    1.7187    1.0000 </r>
       <r>    2.2674    1.0000 </r>
       <r>    2.2690    1.0000 </r>
       <r>    2.2723    1.0000 </r>
       <r>    2.3622    1.0000 </r>
       <r>    2.3665    1.0000 </r>
       <r>    2.3698    1.0000 </r>
       <r>    2.3714    1.0000 </r>
       <r>    2.3726    1.0000 </r>
       <r>    2.3746    1.0000 </r>
       <r>    2.4198    1.0000 </r>
       <r>    2.4216    1.0000 </r>
       <r>    2.4276    1.0000 </r>
       <r>    2.7290    1.0000 </r>
       <r>    2.7335    1.0000 </r>
       <r>    2.7349    1.0000 </r>
       <r>    2.7355    1.0000 </r>
       <r>    2.7377    1.0000 </r>
       <r>    2.7399    1.0000 </r>
       <r>    2.9954    1.0000 </r>
       <r>    2.9987    1.0000 </r>
       <r>    2.9999    1.0000 </r>
       <r>    3.0097    1.0000 </r>
       <r>    3.0123    1.0000 </r>
       <r>    3.0154    1.0000 </r>
       <r>    3.3613    1.0000 </r>
       <r>    3.3644    1.0000 </r>
       <r>    3.3651    1.0000 </r>
       <r>    3.3844    1.0000 </r>
       <r>    3.3872    1.0000 </r>
       <r>    3.3910    1.0000 </r>
       <r>    3.4626    1.0000 </r>
       <r>    3.4664    1.0000 </r>
       <r>    3.4677    1.0000 </r>
       <r>    3.7399    1.0000 </r>
       <r>    3.7405    1.0000 </r>
       <r>    3.7414    1.0000 </r>
       <r>    3.7424    1.0000 </r>
       <r>    3.7475    1.0000 </r>
       <r>    3.7515    1.0000 </r>
       <r>    3.7760    1.0000 </r>
       <r>    3.7805    1.0000 </r>
       <r>    3.7822    1.0000 </r>
       <r>    4.0445    1.0000 </r>
       <r>    4.0919    1.0000 </r>
       <r>    4.0970    1.0000 </r>
       <r>    4.0983    1.0000 </r>
       <r>    4.3357    1.0000 </r>
       <r>    4.3406    1.0000 </r>
       <r>    4.3412    1.0000 </r>
       <r>    4.4062    1.0000 </r>
       <r>    4.4077    1.0000 </r>
       <r>    4.4174    1.0000 </r>
       <r>    4.5594    1.0000 </r>
       <r>    4.5640    1.0000 </r>
       <r>    4.8626    1.0000 </r>
       <r>    4.8694    1.0000 </r>
       <r>    4.8705    1.0000 </r>
       <r>    5.3448    1.0000 </r>
       <r>    5.3501    1.0000 </r>
       <r>    6.5586    0.0000 </r>
       <r>    6.5616    0.0000 </r>
       <r>    6.5652    0.0000 </r>
       <r>    6.9976    0.0000 </r>
       <r>    7.0057    0.0000 </r>
       <r>    7.0078    0.0000 </r>
       <r>    7.2323    0.0000 </r>
       <r>    7.4842    0.0000 </r>
       <r>    7.4903    0.0000 </r>
       <r>    7.4931    0.0000 </r>
       <r>    7.6163    0.0000 </r>
       <r>    7.6224    0.0000 </r>
       <r>    7.6240    0.0000 </r>
       <r>    7.7733    0.0000 </r>
       <r>    7.7814    0.0000 </r>
       <r>    7.7824    0.0000 </r>
       <r>    7.7970    0.0000 </r>
       <r>    7.8018    0.0000 </r>
       <r>    7.8035    0.0000 </r>
       <r>    8.0273    0.0000 </r>
       <r>    8.0293    0.0000 </r>
       <r>    8.0306    0.0000 </r>
       <r>    8.0336    0.0000 </r>
       <r>    8.0351    0.0000 </r>
       <r>    8.0376    0.0000 </r>
       <r>    8.0791    0.0000 </r>
       <r>    8.2908    0.0000 </r>
       <r>    8.2962    0.0000 </r>
       <r>    8.2974    0.0000 </r>
       <r>    8.4933    0.0000 </r>
       <r>    8.5000    0.0000 </r>
       <r>    8.5027    0.0000 </r>
       <r>    8.5056    0.0000 </r>
       <r>    8.5089    0.0000 </r>
       <r>    8.5314    0.0000 </r>
       <r>    8.5643    0.0000 </r>
      </set>
     </set>
    </set>
   </array>
  </eigenvalues>
  <separator name="orbital magnetization" >
   <v name="MAGDIPOLOUT">      0.00000000      0.00000000      0.00000000</v>
  </separator>
  <dos>
   <i name="efermi">      5.61246287 </i>
   <total>
    <array>
     <dimension dim="1">gridpoints</dimension>
     <dimension dim="2">spin</dimension>
     <field>energy</field>
     <field>total</field>
     <field>integrated</field>
     <set>
      <set comment="spin 1">
       <r>    -6.7211     0.0000     0.0000 </r>
       <r>    -6.6677     0.0000     0.0000 </r>
       <r>    -6.6144     0.0000     0.0000 </r>
       <r>    -6.5610     0.0000     0.0000 </r>
       <r>    -6.5076     0.0000     0.0000 </r>
       <r>    -6.4542     0.0000     0.0000 </r>
       <r>    -6.4008     0.0000     0.0000 </r>
       <r>    -6.3475     0.0000     0.0000 </r>
       <r>    -6.2941     0.0000     0.0000 </r>
       <r>    -6.2407     0.0000     0.0000 </r>
       <r>    -6.1873     0.0000     0.0000 </r>
       <r>    -6.1340     0.0013     0.0001 </r>
       <r>    -6.0806     0.2502     0.0134 </r>
       <r>    -6.0272     6.0393     0.3358 </r>
       <r>    -5.9738    20.2330     1.4158 </r>
       <r>    -5.9204    10.2016     1.9603 </r>
       <r>    -5.8671     0.7368     1.9996 </r>
       <r>    -5.8137     0.0068     2.0000 </r>
       <r>    -5.7603     0.0000     2.0000 </r>
       <r>    -5.7069     0.0000     2.0000 </r>
       <r>    -5.6536     0.0000     2.0000 </r>
       <r>    -5.6002     0.0075     2.0004 </r>
       <r>    -5.5468     1.1559     2.0621 </r>
       <r>    -5.4934    22.3875     3.2571 </r>
       <r>    -5.4400    61.5631     6.5432 </r>
       <r>    -5.3867    25.7413     7.9172 </r>
       <r>    -5.3333     1.5396     7.9994 </r>
       <r>    -5.2799     0.0117     8.0000 </r>
       <r>    -5.2265     0.0000     8.0000 </r>
       <r>    -5.1732     0.0000     8.0000 </r>
       <r>    -5.1198     0.0008     8.0000 </r>
       <r>    -5.0664     0.2485     8.0133 </r>
       <r>    -5.0130     9.8821     8.5408 </r>
       <r>    -4.9596    53.4685    11.3948 </r>
       <r>    -4.9063    43.4884    13.7161 </r>
       <r>    -4.8529     5.2349    13.9955 </r>
       <r>    -4.7995     0.0834    14.0000 </r>
       <r>    -4.7461     0.0002    14.0000 </r>
       <r>    -4.6928     0.0001    14.0000 </r>
       <r>    -4.6394     0.0459    14.0025 </r>
       <r>    -4.5860     2.3661    14.1288 </r>
       <r>    -4.5326    16.4422    15.0064 </r>
       <r>    -4.4792    26.6139    16.4270 </r>
       <r>    -4.4259    56.4111    19.4381 </r>
       <r>    -4.3725    42.8831    21.7271 </r>
       <r>    -4.3191     5.0348    21.9958 </r>
       <r>    -4.2657     0.0783    22.0000 </r>
       <r>    -4.2124     0.0002    22.0000 </r>
       <r>    -4.1590     0.0076    22.0004 </r>
       <r>    -4.1056     1.4141    22.0759 </r>
       <r>    -4.0522    34.1764    23.9001 </r>
       <r>    -3.9988   119.2496    30.2654 </r>
       <r>    -3.9455    64.7335    33.7207 </r>
       <r>    -3.8921     8.3479    34.1663 </r>
       <r>    -3.8387    35.4035    36.0561 </r>
       <r>    -3.7853    58.5728    39.1825 </r>
       <r>    -3.7320    14.7905    39.9720 </r>
       <r>    -3.6786     0.5217    39.9999 </r>
       <r>    -3.6252     0.0023    40.0000 </r>
       <r>    -3.5718     0.0000    40.0000 </r>
       <r>    -3.5184     0.0000    40.0000 </r>
       <r>    -3.4651     0.0067    40.0004 </r>
       <r>    -3.4117     1.0614    40.0570 </r>
       <r>    -3.3583    21.3558    41.1969 </r>
       <r>    -3.3049    61.3139    44.4697 </r>
       <r>    -3.2516    26.9439    45.9079 </r>
       <r>    -3.1982     1.7109    45.9993 </r>
       <r>    -3.1448     0.0140    46.0000 </r>
       <r>    -3.0914     0.0112    46.0006 </r>
       <r>    -3.0380     1.4805    46.0796 </r>
       <r>    -2.9847    25.1013    47.4195 </r>
       <r>    -2.9313    61.4655    50.7004 </r>
       <r>    -2.8779    24.7520    52.0216 </r>
       <r>    -2.8245    38.4031    54.0714 </r>
       <r>    -2.7712   120.6430    60.5111 </r>
       <r>    -2.7178    60.7915    63.7560 </r>
       <r>    -2.6644     4.5273    63.9976 </r>
       <r>    -2.6110     0.0444    64.0000 </r>
       <r>    -2.5577     0.0001    64.0000 </r>
       <r>    -2.5043     0.0000    64.0000 </r>
       <r>    -2.4509     0.0000    64.0000 </r>
       <r>    -2.3975     0.0000    64.0000 </r>
       <r>    -2.3441     0.0000    64.0000 </r>
       <r>    -2.2908     0.0000    64.0000 </r>
       <r>    -2.2374     0.0000    64.0000 </r>
       <r>    -2.1840     0.0000    64.0000 </r>
       <r>    -2.1306     0.0000    64.0000 </r>
       <r>    -2.0773     0.0000    64.0000 </r>
       <r>    -2.0239     0.0000    64.0000 </r>
       <r>    -1.9705     0.0000    64.0000 </r>
       <r>    -1.9171     0.0000    64.0000 </r>
       <r>    -1.8637     0.0000    64.0000 </r>
       <r>    -1.8104     0.0000    64.0000 </r>
       <r>    -1.7570     0.0000    64.0000 </r>
       <r>    -1.7036     0.0000    64.0000 </r>
       <r>    -1.6502     0.0000    64.0000 </r>
       <r>    -1.5969     0.0000    64.0000 </r>
       <r>    -1.5435     0.0000    64.0000 </r>
       <r>    -1.4901     0.0000    64.0000 </r>
       <r>    -1.4367     0.0000    64.0000 </r>
       <r>    -1.3833     0.0191    64.0010 </r>
       <r>    -1.3300     2.6052    64.1401 </r>
       <r>    -1.2766    46.6194    66.6285 </r>
       <r>    -1.2232   124.7488    73.2873 </r>
       <r>    -1.1698    81.4723    77.6361 </r>
       <r>    -1.1165    64.2246    81.0643 </r>
       <r>    -1.0631    38.8878    83.1400 </r>
       <r>    -1.0097    66.3075    86.6793 </r>
       <r>    -0.9563    67.2681    90.2700 </r>
       <r>    -0.9029    57.3865    93.3331 </r>
       <r>    -0.8496    12.1170    93.9799 </r>
       <r>    -0.7962     0.3754    93.9999 </r>
       <r>    -0.7428     0.0015    94.0000 </r>
       <r>    -0.6894     0.0000    94.0000 </r>
       <r>    -0.6361     0.0000    94.0000 </r>
       <r>    -0.5827     0.0000    94.0000 </r>
       <r>    -0.5293     0.0000    94.0000 </r>
       <r>    -0.4759     0.0000    94.0000 </r>
       <r>    -0.4225     0.0000    94.0000 </r>
       <r>    -0.3692     0.0082    94.0004 </r>
       <r>    -0.3158     0.8271    94.0446 </r>
       <r>    -0.2624    11.1652    94.6406 </r>
       <r>    -0.2090    38.9001    96.7170 </r>
       <r>    -0.1557   109.8661   102.5814 </r>
       <r>    -0.1023    89.5573   107.3617 </r>
       <r>    -0.0489    11.7451   107.9886 </r>
       <r>     0.0045     0.2125   108.0000 </r>
       <r>     0.0579     0.0005   108.0000 </r>
       <r>     0.1112     0.0000   108.0000 </r>
       <r>     0.1646     0.0000   108.0000 </r>
       <r>     0.2180     0.0000   108.0000 </r>
       <r>     0.2714     0.0000   108.0000 </r>
       <r>     0.3247     0.0000   108.0000 </r>
       <r>     0.3781     0.0000   108.0000 </r>
       <r>     0.4315     0.0000   108.0000 </r>
       <r>     0.4849     0.0000   108.0000 </r>
       <r>     0.5383     0.0000   108.0000 </r>
       <r>     0.5916     0.0329   108.0018 </r>
       <r>     0.6450     2.8969   108.1564 </r>
       <r>     0.6984    33.9221   109.9671 </r>
       <r>     0.7518    59.0630   113.1197 </r>
       <r>     0.8051    15.8819   113.9675 </r>
       <r>     0.8585     0.6068   113.9998 </r>
       <r>     0.9119     0.0107   114.0004 </r>
       <r>     0.9653     1.1799   114.0634 </r>
       <r>     1.0187    22.5859   115.2690 </r>
       <r>     1.0720    61.5452   118.5541 </r>
       <r>     1.1254    25.5551   119.9182 </r>
       <r>     1.1788     1.5212   119.9994 </r>
       <r>     1.2322     0.0115   120.0000 </r>
       <r>     1.2855     0.0000   120.0000 </r>
       <r>     1.3389     0.0000   120.0000 </r>
       <r>     1.3923     0.0000   120.0000 </r>
       <r>     1.4457     0.0000   120.0000 </r>
       <r>     1.4990     0.0010   120.0001 </r>
       <r>     1.5524     0.3628   120.0194 </r>
       <r>     1.6058    16.5808   120.9045 </r>
       <r>     1.6592   107.2836   126.6310 </r>
       <r>     1.7126   139.1115   134.0565 </r>
       <r>     1.7659    64.6337   137.5064 </r>
       <r>     1.8193     9.0428   137.9891 </r>
       <r>     1.8727     0.2030   138.0000 </r>
       <r>     1.9261     0.0006   138.0000 </r>
       <r>     1.9794     0.0000   138.0000 </r>
       <r>     2.0328     0.0000   138.0000 </r>
       <r>     2.0862     0.0000   138.0000 </r>
       <r>     2.1396     0.0169   138.0009 </r>
       <r>     2.1930     1.9484   138.1049 </r>
       <r>     2.2463    28.8024   139.6423 </r>
       <r>     2.2997    66.1915   143.1755 </r>
       <r>     2.3531    86.4802   147.7916 </r>
       <r>     2.4065   151.9914   155.9045 </r>
       <r>     2.4598    94.3701   160.9418 </r>
       <r>     2.5132    19.0798   161.9602 </r>
       <r>     2.5666     0.7422   161.9998 </r>
       <r>     2.6200     0.1406   162.0073 </r>
       <r>     2.6734     9.2064   162.4987 </r>
       <r>     2.7267    82.5452   166.9048 </r>
       <r>     2.7801   110.0512   172.7791 </r>
       <r>     2.8335    22.2524   173.9668 </r>
       <r>     2.8869     0.7240   174.0055 </r>
       <r>     2.9402     7.4719   174.4043 </r>
       <r>     2.9936    73.8848   178.3481 </r>
       <r>     3.0470   113.9732   184.4317 </r>
       <r>     3.1004    28.3314   185.9440 </r>
       <r>     3.1538     1.0440   185.9997 </r>
       <r>     3.2071     0.0058   186.0000 </r>
       <r>     3.2605     0.2665   186.0143 </r>
       <r>     3.3139    12.2862   186.6701 </r>
       <r>     3.3673    86.0808   191.2649 </r>
       <r>     3.4206   114.2662   197.3641 </r>
       <r>     3.4740    76.6610   201.4561 </r>
       <r>     3.5274    42.8027   203.7408 </r>
       <r>     3.5808     4.7848   203.9962 </r>
       <r>     3.6342     0.3797   204.0165 </r>
       <r>     3.6875    15.0790   204.8214 </r>
       <r>     3.7409   110.8351   210.7375 </r>
       <r>     3.7943   156.0246   219.0657 </r>
       <r>     3.8477    51.3127   221.8047 </r>
       <r>     3.9010     3.6213   221.9979 </r>
       <r>     3.9544     0.3250   222.0153 </r>
       <r>     4.0078     6.9960   222.3887 </r>
       <r>     4.0612    36.5311   224.3387 </r>
       <r>     4.1146    69.4073   228.0435 </r>
       <r>     4.1679    33.9204   229.8541 </r>
       <r>     4.2213     2.7474   230.0007 </r>
       <r>     4.2747     3.4620   230.1855 </r>
       <r>     4.3281    38.3838   232.2343 </r>
       <r>     4.3814    84.0165   236.7189 </r>
       <r>     4.4348    74.9379   240.7190 </r>
       <r>     4.4882    24.1212   242.0065 </r>
       <r>     4.5416    20.4113   243.0960 </r>
       <r>     4.5950    40.6562   245.2661 </r>
       <r>     4.6483    13.1428   245.9676 </r>
       <r>     4.7017     0.6027   245.9998 </r>
       <r>     4.7551     0.0728   246.0037 </r>
       <r>     4.8085     4.6205   246.2503 </r>
       <r>     4.8618    41.2236   248.4508 </r>
       <r>     4.9152    54.9881   251.3859 </r>
       <r>     4.9686    11.1884   251.9831 </r>
       <r>     5.0220     0.3155   251.9999 </r>
       <r>     5.0754     0.0011   252.0000 </r>
       <r>     5.1287     0.0000   252.0000 </r>
       <r>     5.1821     0.0001   252.0000 </r>
       <r>     5.2355     0.0496   252.0027 </r>
       <r>     5.2889     3.2195   252.1745 </r>
       <r>     5.3422    27.9534   253.6666 </r>
       <r>     5.3956    36.3199   255.6053 </r>
       <r>     5.4490     7.1970   255.9894 </r>
       <r>     5.5024     0.1975   256.0000 </r>
       <r>     5.5557     0.0007   256.0000 </r>
       <r>     5.6091     0.0000   256.0000 </r>
       <r>     5.6625     0.0000   256.0000 </r>
       <r>     5.7159     0.0000   256.0000 </r>
       <r>     5.7693     0.0000   256.0000 </r>
       <r>     5.8226     0.0000   256.0000 </r>
       <r>     5.8760     0.0000   256.0000 </r>
       <r>     5.9294     0.0000   256.0000 </r>
       <r>     5.9828     0.0000   256.0000 </r>
       <r>     6.0361     0.0000   256.0000 </r>
       <r>     6.0895     0.0000   256.0000 </r>
       <r>     6.1429     0.0000   256.0000 </r>
       <r>     6.1963     0.0000   256.0000 </r>
       <r>     6.2497     0.0000   256.0000 </r>
       <r>     6.3030     0.0000   256.0000 </r>
       <r>     6.3564     0.0000   256.0000 </r>
       <r>     6.4098     0.0008   256.0000 </r>
       <r>     6.4632     0.2647   256.0142 </r>
       <r>     6.5165    10.2256   256.5600 </r>
       <r>     6.5699    53.9275   259.4385 </r>
       <r>     6.6233    42.8623   261.7264 </r>
       <r>     6.6767     5.0470   261.9958 </r>
       <r>     6.7301     0.0787   262.0000 </r>
       <r>     6.7834     0.0001   262.0000 </r>
       <r>     6.8368     0.0001   262.0000 </r>
       <r>     6.8902     0.0747   262.0040 </r>
       <r>     6.9436     4.8323   262.2619 </r>
       <r>     6.9969    41.9413   264.5007 </r>
       <r>     7.0503    54.4796   267.4087 </r>
       <r>     7.1037    10.7870   267.9844 </r>
       <r>     7.1571     0.8573   268.0302 </r>
       <r>     7.2105     9.0034   268.5108 </r>
       <r>     7.2638    20.5093   269.6055 </r>
       <r>     7.3172     7.0487   269.9818 </r>
       <r>     7.3706     0.3806   270.0021 </r>
       <r>     7.4240     3.3578   270.1813 </r>
       <r>     7.4773    36.3278   272.1204 </r>
       <r>     7.5307    58.7405   275.2558 </r>
       <r>     7.5841    31.3353   276.9284 </r>
       <r>     7.6375    60.4852   280.1570 </r>
       <r>     7.6909    32.8108   281.9084 </r>
       <r>     7.7442    25.6589   283.2780 </r>
       <r>     7.7976   105.5393   288.9114 </r>
       <r>     7.8510    83.7606   293.3823 </r>
       <r>     7.9044    11.3856   293.9901 </r>
       <r>     7.9577     4.8028   294.2464 </r>
       <r>     8.0111    62.0691   297.5595 </r>
       <r>     8.0645   131.7656   304.5929 </r>
       <r>     8.1179    56.6089   307.6145 </r>
       <r>     8.1713     7.0349   307.9900 </r>
       <r>     8.2246     2.8438   308.1418 </r>
       <r>     8.2780    32.8885   309.8973 </r>
       <r>     8.3314    59.7554   313.0869 </r>
       <r>     8.3848    16.5730   313.9716 </r>
       <r>     8.4381     7.9412   314.3954 </r>
       <r>     8.4915    74.2253   318.3574 </r>
       <r>     8.5449   129.0299   325.2447 </r>
       <r>     8.5983    47.0924   327.7584 </r>
       <r>     8.6517     4.4251   327.9946 </r>
       <r>     8.7050     0.1005   328.0000 </r>
       <r>     8.7584     0.0004   328.0000 </r>
       <r>     8.8118     0.0000   328.0000 </r>
       <r>     8.8652     0.0000   328.0000 </r>
       <r>     8.9185     0.0000   328.0000 </r>
       <r>     8.9719     0.0000   328.0000 </r>
       <r>     9.0253     0.0000   328.0000 </r>
       <r>     9.0787     0.0000   328.0000 </r>
       <r>     9.1321     0.0000   328.0000 </r>
       <r>     9.1854     0.0000   328.0000 </r>
       <r>     9.2388     0.0000   328.0000 </r>
       <r>     9.2922     0.0000   328.0000 </r>
      </set>
     </set>
    </array>
   </total>
  </dos>
 </calculation>
 <structure name="finalpos" >
  <crystal>
   <varray name="basis" >
    <v>      10.93252578       0.00000000       0.00000000 </v>
    <v>       0.00000000      10.93252578       0.00000000 </v>
    <v>       0.00000000       0.00000000      10.93252578 </v>
   </varray>
   <i name="volume">   1306.65679237 </i>
   <varray name="rec_basis" >
    <v>       0.09147017       0.00000000       0.00000000 </v>
    <v>       0.00000000       0.09147017       0.00000000 </v>
    <v>       0.00000000       0.00000000       0.09147017 </v>
   </varray>
  </crystal>
  <varray name="positions" >
   <v>       0.44024411       0.43750000       0.43750000 </v>
   <v>       0.93750000       0.43750000       0.43750000 </v>
   <v>       0.43750000       0.93750000       0.43750000 </v>
   <v>       0.93750000       0.93750000       0.43750000 </v>
   <v>       0.43750000       0.43750000       0.93750000 </v>
   <v>       0.93750000       0.43750000       0.93750000 </v>
   <v>       0.43750000       0.93750000       0.93750000 </v>
   <v>       0.93750000       0.93750000       0.93750000 </v>
   <v>       0.43750000       0.18750000       0.18750000 </v>
   <v>       0.93750000       0.18750000       0.18750000 </v>
   <v>       0.43750000       0.68750000       0.18750000 </v>
   <v>       0.93750000       0.68750000       0.18750000 </v>
   <v>       0.43750000       0.18750000       0.68750000 </v>
   <v>       0.93750000       0.18750000       0.68750000 </v>
   <v>       0.43750000       0.68750000       0.68750000 </v>
   <v>       0.93750000       0.68750000       0.68750000 </v>
   <v>       0.18750000       0.43750000       0.18750000 </v>
   <v>       0.68750000       0.43750000       0.18750000 </v>
   <v>       0.18750000       0.93750000       0.18750000 </v>
   <v>       0.68750000       0.93750000       0.18750000 </v>
   <v>       0.18750000       0.43750000       0.68750000 </v>
   <v>       0.68750000       0.43750000       0.68750000 </v>
   <v>       0.18750000       0.93750000       0.68750000 </v>
   <v>       0.68750000       0.93750000       0.68750000 </v>
   <v>       0.18750000       0.18750000       0.43750000 </v>
   <v>       0.68750000       0.18750000       0.43750000 </v>
   <v>       0.18750000       0.68750000       0.43750000 </v>
   <v>       0.68750000       0.68750000       0.43750000 </v>
   <v>       0.18750000       0.18750000       0.93750000 </v>
   <v>       0.68750000       0.18750000       0.93750000 </v>
   <v>       0.18750000       0.68750000       0.93750000 </v>
   <v>       0.68750000       0.68750000       0.93750000 </v>
   <v>       0.06250000       0.05975589       0.06250000 </v>
   <v>       0.56250000       0.06250000       0.06250000 </v>
   <v>       0.06250000       0.56250000       0.06250000 </v>
   <v>       0.56250000       0.56250000       0.06250000 </v>
   <v>       0.06250000       0.06250000       0.56250000 </v>
   <v>       0.56250000       0.06250000       0.56250000 </v>
   <v>       0.06250000       0.56250000       0.56250000 </v>
   <v>       0.56250000       0.56250000       0.56250000 </v>
   <v>       0.06250000       0.31250000       0.31250000 </v>
   <v>       0.56250000       0.31250000       0.31250000 </v>
   <v>       0.06250000       0.81250000       0.31250000 </v>
   <v>       0.56250000       0.81250000       0.31250000 </v>
   <v>       0.06250000       0.31250000       0.81250000 </v>
   <v>       0.56250000       0.31250000       0.81250000 </v>
   <v>       0.06250000       0.81250000       0.81250000 </v>
   <v>       0.56250000       0.81250000       0.81250000 </v>
   <v>       0.31250000       0.06250000       0.31250000 </v>
   <v>       0.81250000       0.06250000       0.31250000 </v>
   <v>       0.31250000       0.56250000       0.31250000 </v>
   <v>       0.81250000       0.56250000       0.31250000 </v>
   <v>       0.31250000       0.06250000       0.81250000 </v>
   <v>       0.81250000       0.06250000       0.81250000 </v>
   <v>       0.31250000       0.56250000       0.81250000 </v>
   <v>       0.81250000       0.56250000       0.81250000 </v>
   <v>       0.31250000       0.31250000       0.06250000 </v>
   <v>       0.81250000       0.31250000       0.06250000 </v>
   <v>       0.31250000       0.81250000       0.06250000 </v>
   <v>       0.81250000       0.81250000       0.06250000 </v>
   <v>       0.31250000       0.31250000       0.56250000 </v>
   <v>       0.81250000       0.31250000       0.56250000 </v>
   <v>       0.31250000       0.81250000       0.56250000 </v>
   <v>       0.81250000       0.81250000       0.56250000 </v>
  </varray>
 </structure>
</modeling>
