
     Program PWSCF v.5.3.0 (svn rev. 11974) starts on  3Feb2016 at 13:50:27 

     This program is part of the open-source Quantum ESPRESSO suite
     for quantum simulation of materials; please cite
         "P. Giannozzi et al., J. Phys.:Condens. Matter 21 395502 (2009);
          URL http://www.quantum-espresso.org", 
     in publications or presentations arising from this work. More details at
     http://www.quantum-espresso.org/quote

     Parallel version (MPI), running on    16 processors
     R & G space division:  proc/nbgrp/npool/nimage =      16
     Reading input from Si.in

     Current dimensions of program PWSCF are:
     Max number of different atomic species (ntypx) = 10
     Max number of k-points (npk) =  40000
     Max angular momentum in pseudopotentials (lmaxx) =  3
               file Si.pbe-n-kjpaw_psl.0.1.UPF: wavefunction(s)  3S renormalized

     Subspace diagonalization in iterative solution of the eigenvalue problem:
     one sub-group per k-point group (pool) will be used
     scalapack distributed-memory algorithm (size of sub-group:  2*  2 procs)

 
     Parallelization info
     --------------------
     sticks:   dense  smooth     PW     G-vecs:    dense   smooth      PW
     Min         424     424    109                26332    26332    3467
     Max         425     425    110                26336    26336    3472
     Sum        6785    6785   1757               421349   421349   55515
 


     bravais-lattice index     =            0
     lattice parameter (alat)  =      20.6591  a.u.
     unit-cell volume          =    8817.2783 (a.u.)^3
     number of atoms/cell      =           64
     number of atomic types    =            1
     number of electrons       =       256.00
     number of Kohn-Sham states=          154
     kinetic-energy cutoff     =      50.0000  Ry
     charge density cutoff     =     200.0000  Ry
     convergence threshold     =      1.0E-09
     mixing beta               =       0.7000
     number of iterations used =            8  plain     mixing
     Exchange-correlation      =  SLA  PW   PBX  PBC ( 1  4  3  4 0 0)

     celldm(1)=  20.659106  celldm(2)=   0.000000  celldm(3)=   0.000000
     celldm(4)=   0.000000  celldm(5)=   0.000000  celldm(6)=   0.000000

     crystal axes: (cart. coord. in units of alat)
               a(1) = (   1.000000   0.000000   0.000000 )  
               a(2) = (   0.000000   1.000000   0.000000 )  
               a(3) = (   0.000000   0.000000   1.000000 )  

     reciprocal axes: (cart. coord. in units 2 pi/alat)
               b(1) = (  1.000000  0.000000  0.000000 )  
               b(2) = (  0.000000  1.000000  0.000000 )  
               b(3) = (  0.000000  0.000000  1.000000 )  


     PseudoPot. # 1 for Si read from file:
     /home/togo/espresso/pseudo/Si.pbe-n-kjpaw_psl.0.1.UPF
     MD5 check sum: b9d333a40e496bef61db012f150758bf
     Pseudo is Projector augmented-wave + core cor, Zval =  4.0
     Generated using "atomic" code by A. Dal Corso  v.5.0.2 svn rev. 9415
     Shape of augmentation charge: PSQ
     Using radial grid of 1141 points,  4 beta functions with: 
                l(1) =   0
                l(2) =   0
                l(3) =   1
                l(4) =   1
     Q(r) pseudized with 0 coefficients 


     atomic species   valence    mass     pseudopotential
        Si             4.00    28.08550     Si( 1.00)

     No symmetry found



   Cartesian axes

     site n.     atom                  positions (alat units)
         1           Si  tau(   1) = (   0.4404043   0.4375000   0.4375000  )
         2           Si  tau(   2) = (   0.9375000   0.4375000   0.4375000  )
         3           Si  tau(   3) = (   0.4375000   0.9375000   0.4375000  )
         4           Si  tau(   4) = (   0.9375000   0.9375000   0.4375000  )
         5           Si  tau(   5) = (   0.4375000   0.4375000   0.9375000  )
         6           Si  tau(   6) = (   0.9375000   0.4375000   0.9375000  )
         7           Si  tau(   7) = (   0.4375000   0.9375000   0.9375000  )
         8           Si  tau(   8) = (   0.9375000   0.9375000   0.9375000  )
         9           Si  tau(   9) = (   0.4375000   0.1875000   0.1875000  )
        10           Si  tau(  10) = (   0.9375000   0.1875000   0.1875000  )
        11           Si  tau(  11) = (   0.4375000   0.6875000   0.1875000  )
        12           Si  tau(  12) = (   0.9375000   0.6875000   0.1875000  )
        13           Si  tau(  13) = (   0.4375000   0.1875000   0.6875000  )
        14           Si  tau(  14) = (   0.9375000   0.1875000   0.6875000  )
        15           Si  tau(  15) = (   0.4375000   0.6875000   0.6875000  )
        16           Si  tau(  16) = (   0.9375000   0.6875000   0.6875000  )
        17           Si  tau(  17) = (   0.1875000   0.4375000   0.1875000  )
        18           Si  tau(  18) = (   0.6875000   0.4375000   0.1875000  )
        19           Si  tau(  19) = (   0.1875000   0.9375000   0.1875000  )
        20           Si  tau(  20) = (   0.6875000   0.9375000   0.1875000  )
        21           Si  tau(  21) = (   0.1875000   0.4375000   0.6875000  )
        22           Si  tau(  22) = (   0.6875000   0.4375000   0.6875000  )
        23           Si  tau(  23) = (   0.1875000   0.9375000   0.6875000  )
        24           Si  tau(  24) = (   0.6875000   0.9375000   0.6875000  )
        25           Si  tau(  25) = (   0.1875000   0.1875000   0.4375000  )
        26           Si  tau(  26) = (   0.6875000   0.1875000   0.4375000  )
        27           Si  tau(  27) = (   0.1875000   0.6875000   0.4375000  )
        28           Si  tau(  28) = (   0.6875000   0.6875000   0.4375000  )
        29           Si  tau(  29) = (   0.1875000   0.1875000   0.9375000  )
        30           Si  tau(  30) = (   0.6875000   0.1875000   0.9375000  )
        31           Si  tau(  31) = (   0.1875000   0.6875000   0.9375000  )
        32           Si  tau(  32) = (   0.6875000   0.6875000   0.9375000  )
        33           Si  tau(  33) = (   0.0625000   0.0625000   0.0625000  )
        34           Si  tau(  34) = (   0.5625000   0.0625000   0.0625000  )
        35           Si  tau(  35) = (   0.0625000   0.5625000   0.0625000  )
        36           Si  tau(  36) = (   0.5625000   0.5625000   0.0625000  )
        37           Si  tau(  37) = (   0.0625000   0.0625000   0.5625000  )
        38           Si  tau(  38) = (   0.5625000   0.0625000   0.5625000  )
        39           Si  tau(  39) = (   0.0625000   0.5625000   0.5625000  )
        40           Si  tau(  40) = (   0.5625000   0.5625000   0.5625000  )
        41           Si  tau(  41) = (   0.0625000   0.3125000   0.3125000  )
        42           Si  tau(  42) = (   0.5625000   0.3125000   0.3125000  )
        43           Si  tau(  43) = (   0.0625000   0.8125000   0.3125000  )
        44           Si  tau(  44) = (   0.5625000   0.8125000   0.3125000  )
        45           Si  tau(  45) = (   0.0625000   0.3125000   0.8125000  )
        46           Si  tau(  46) = (   0.5625000   0.3125000   0.8125000  )
        47           Si  tau(  47) = (   0.0625000   0.8125000   0.8125000  )
        48           Si  tau(  48) = (   0.5625000   0.8125000   0.8125000  )
        49           Si  tau(  49) = (   0.3125000   0.0625000   0.3125000  )
        50           Si  tau(  50) = (   0.8125000   0.0625000   0.3125000  )
        51           Si  tau(  51) = (   0.3125000   0.5625000   0.3125000  )
        52           Si  tau(  52) = (   0.8125000   0.5654043   0.3125000  )
        53           Si  tau(  53) = (   0.3125000   0.0625000   0.8125000  )
        54           Si  tau(  54) = (   0.8125000   0.0625000   0.8125000  )
        55           Si  tau(  55) = (   0.3125000   0.5625000   0.8125000  )
        56           Si  tau(  56) = (   0.8125000   0.5625000   0.8125000  )
        57           Si  tau(  57) = (   0.3125000   0.3125000   0.0625000  )
        58           Si  tau(  58) = (   0.8125000   0.3125000   0.0625000  )
        59           Si  tau(  59) = (   0.3125000   0.8125000   0.0625000  )
        60           Si  tau(  60) = (   0.8125000   0.8125000   0.0625000  )
        61           Si  tau(  61) = (   0.3125000   0.3125000   0.5625000  )
        62           Si  tau(  62) = (   0.8125000   0.3125000   0.5625000  )
        63           Si  tau(  63) = (   0.3125000   0.8125000   0.5625000  )
        64           Si  tau(  64) = (   0.8125000   0.8125000   0.5625000  )

     number of k points=     4  gaussian smearing, width (Ry)=  0.0100
                       cart. coord. in units 2pi/alat
        k(    1) = (   0.2500000   0.2500000   0.2500000), wk =   0.5000000
        k(    2) = (  -0.2500000  -0.2500000   0.2500000), wk =   0.5000000
        k(    3) = (  -0.2500000   0.2500000  -0.2500000), wk =   0.5000000
        k(    4) = (   0.2500000  -0.2500000  -0.2500000), wk =   0.5000000

     Dense  grid:   421349 G-vectors     FFT dimensions: (  96,  96,  96)

     Largest allocated arrays     est. size (Mb)     dimensions
        Kohn-Sham Wavefunctions         7.73 Mb     (    3289,  154)
        NL pseudopotentials            25.70 Mb     (    3289,  512)
        Each V/rho on FFT grid          0.84 Mb     (   55296)
        Each G-vector array             0.20 Mb     (   26336)
        G-vector shells                 0.01 Mb     (    1719)
     Largest temporary arrays     est. size (Mb)     dimensions
        Auxiliary wavefunctions        30.91 Mb     (    3289,  616)
        Each subspace H/S matrix        1.45 Mb     (     308,  308)
        Each <psi_i|beta_j> matrix      1.20 Mb     (     512,  154)
        Arrays for rho mixing           6.75 Mb     (   55296,    8)

     Check: negative/imaginary core charge=   -0.000001    0.000000

     Initial potential from superposition of free atoms

     starting charge  255.96421, renormalised to  256.00000
     Starting wfc are  256 randomized atomic wfcs
     Checking if some PAW data can be deallocated... 

     total cpu time spent up to now is       13.1 secs

     per-process dynamical memory:   115.3 Mb

     Self-consistent Calculation

     iteration #  1     ecut=    50.00 Ry     beta=0.70
     Davidson diagonalization with overlap
     ethr =  1.00E-02,  avg # of iterations =  3.0

     Threshold (ethr) on eigenvalues was too large:
     Diagonalizing with lowered threshold

     Davidson diagonalization with overlap
     ethr =  7.00E-04,  avg # of iterations =  1.0

     total cpu time spent up to now is       52.7 secs

     total energy              =   -2990.45692540 Ry
     Harris-Foulkes estimate   =   -2990.87684574 Ry
     estimated scf accuracy    <       1.77336338 Ry

     iteration #  2     ecut=    50.00 Ry     beta=0.70
     Davidson diagonalization with overlap
     ethr =  6.93E-04,  avg # of iterations =  1.0

     total cpu time spent up to now is       69.2 secs

     total energy              =   -2990.52360852 Ry
     Harris-Foulkes estimate   =   -2990.52747409 Ry
     estimated scf accuracy    <       0.07629405 Ry

     iteration #  3     ecut=    50.00 Ry     beta=0.70
     Davidson diagonalization with overlap
     ethr =  2.98E-05,  avg # of iterations = 11.2

     total cpu time spent up to now is      106.0 secs

     total energy              =   -2990.53061773 Ry
     Harris-Foulkes estimate   =   -2990.53136007 Ry
     estimated scf accuracy    <       0.00191015 Ry

     iteration #  4     ecut=    50.00 Ry     beta=0.70
     Davidson diagonalization with overlap
     ethr =  7.46E-07,  avg # of iterations =  5.2

     total cpu time spent up to now is      141.1 secs

     total energy              =   -2990.53043801 Ry
     Harris-Foulkes estimate   =   -2990.53266911 Ry
     estimated scf accuracy    <       0.00721812 Ry

     iteration #  5     ecut=    50.00 Ry     beta=0.70
     Davidson diagonalization with overlap
     ethr =  7.46E-07,  avg # of iterations =  4.8

     total cpu time spent up to now is      167.5 secs

     total energy              =   -2990.53149092 Ry
     Harris-Foulkes estimate   =   -2990.53158750 Ry
     estimated scf accuracy    <       0.00026614 Ry

     iteration #  6     ecut=    50.00 Ry     beta=0.70
     Davidson diagonalization with overlap
     ethr =  1.04E-07,  avg # of iterations =  3.0

     total cpu time spent up to now is      187.2 secs

     total energy              =   -2990.53154021 Ry
     Harris-Foulkes estimate   =   -2990.53155793 Ry
     estimated scf accuracy    <       0.00005037 Ry

     iteration #  7     ecut=    50.00 Ry     beta=0.70
     Davidson diagonalization with overlap
     ethr =  1.97E-08,  avg # of iterations =  2.0

     total cpu time spent up to now is      206.2 secs

     total energy              =   -2990.53154926 Ry
     Harris-Foulkes estimate   =   -2990.53155070 Ry
     estimated scf accuracy    <       0.00000330 Ry

     iteration #  8     ecut=    50.00 Ry     beta=0.70
     Davidson diagonalization with overlap
     ethr =  1.29E-09,  avg # of iterations =  3.0

     total cpu time spent up to now is      229.6 secs

     total energy              =   -2990.53155029 Ry
     Harris-Foulkes estimate   =   -2990.53155049 Ry
     estimated scf accuracy    <       0.00000048 Ry

     iteration #  9     ecut=    50.00 Ry     beta=0.70
     Davidson diagonalization with overlap
     ethr =  1.87E-10,  avg # of iterations =  3.0

     total cpu time spent up to now is      249.9 secs

     total energy              =   -2990.53155030 Ry
     Harris-Foulkes estimate   =   -2990.53155041 Ry
     estimated scf accuracy    <       0.00000019 Ry

     iteration # 10     ecut=    50.00 Ry     beta=0.70
     Davidson diagonalization with overlap
     ethr =  7.55E-11,  avg # of iterations =  2.0

     total cpu time spent up to now is      267.5 secs

     total energy              =   -2990.53155028 Ry
     Harris-Foulkes estimate   =   -2990.53155033 Ry
     estimated scf accuracy    <       0.00000005 Ry

     iteration # 11     ecut=    50.00 Ry     beta=0.70
     Davidson diagonalization with overlap
     ethr =  1.87E-11,  avg # of iterations =  2.0

     total cpu time spent up to now is      286.0 secs

     total energy              =   -2990.53155029 Ry
     Harris-Foulkes estimate   =   -2990.53155029 Ry
     estimated scf accuracy    <          1.6E-09 Ry

     iteration # 12     ecut=    50.00 Ry     beta=0.70
     Davidson diagonalization with overlap
     ethr =  6.38E-13,  avg # of iterations =  3.0

     total cpu time spent up to now is      313.4 secs

     total energy              =   -2990.53155029 Ry
     Harris-Foulkes estimate   =   -2990.53155030 Ry
     estimated scf accuracy    <          1.8E-09 Ry

     iteration # 13     ecut=    50.00 Ry     beta=0.70
     Davidson diagonalization with overlap
     ethr =  6.38E-13,  avg # of iterations =  3.0

     total cpu time spent up to now is      333.5 secs

     End of self-consistent calculation

          k = 0.2500 0.2500 0.2500 ( 52563 PWs)   bands (ev):

    -5.6250  -5.0990  -5.0970  -5.0930  -4.5993  -4.5973  -4.5936  -4.1631
    -4.0662  -4.0641  -4.0599  -3.6557  -3.6504  -3.6479  -3.6455  -3.6447
    -3.6381  -3.4593  -3.4548  -3.4502  -2.9622  -2.9589  -2.9546  -2.5944
    -2.5892  -2.5843  -2.4292  -2.4237  -2.4220  -2.4197  -2.4181  -2.4119
    -0.8873  -0.8813  -0.8798  -0.8754  -0.8748  -0.8715  -0.7858  -0.7804
    -0.7748  -0.6678  -0.6623  -0.6567  -0.5836  -0.5756  -0.5689   0.1263
     0.2010   0.2073   0.2090   0.2143   0.2158   0.2172   1.0790   1.0855
     1.0915   1.4139   1.4184   1.4227   2.0235   2.0266   2.0291   2.0299
     2.0307   2.0347   2.0855   2.0884   2.0911   2.6370   2.6402   2.6430
     2.7372   2.7388   2.7418   2.7454   2.7463   2.7490   2.7928   2.7960
     2.8009   3.1022   3.1052   3.1071   3.1079   3.1099   3.1132   3.3693
     3.3713   3.3738   3.3823   3.3866   3.3905   3.7312   3.7350   3.7372
     3.7521   3.7561   3.7616   3.8365   3.8400   3.8420   4.1058   4.1121
     4.1132   4.1153   4.1171   4.1217   4.1504   4.1544   4.1565   4.4132
     4.4676   4.4707   4.4746   4.7112   4.7148   4.7175   4.7728   4.7788
     4.7853   4.9319   4.9406   5.2391   5.2442   5.2475   5.7191   5.7289
     6.9330   6.9356   6.9401   7.3715   7.3786   7.3800   7.5987   7.8569
     7.8632   7.8654   7.9872   7.9918   7.9961   8.1472   8.1515   8.1548
     8.1665   8.1679   8.1735   8.3949   8.3981   8.4017   8.4042   8.4066
     8.4085   8.4482

          k =-0.2500-0.2500 0.2500 ( 52563 PWs)   bands (ev):

    -5.6250  -5.1005  -5.0959  -5.0927  -4.6008  -4.5963  -4.5931  -4.1633
    -4.0674  -4.0627  -4.0599  -3.6578  -3.6481  -3.6470  -3.6463  -3.6440
    -3.6393  -3.4592  -3.4549  -3.4502  -2.9630  -2.9582  -2.9545  -2.5945
    -2.5891  -2.5843  -2.4301  -2.4218  -2.4210  -2.4203  -2.4182  -2.4131
    -0.8876  -0.8813  -0.8788  -0.8776  -0.8757  -0.8691  -0.7857  -0.7806
    -0.7746  -0.6678  -0.6622  -0.6567  -0.5807  -0.5773  -0.5702   0.1263
     0.2012   0.2054   0.2099   0.2113   0.2145   0.2222   1.0812   1.0850
     1.0899   1.4143   1.4183   1.4224   2.0242   2.0272   2.0280   2.0293
     2.0321   2.0337   2.0856   2.0879   2.0914   2.6371   2.6402   2.6430
     2.7360   2.7393   2.7429   2.7449   2.7469   2.7484   2.7925   2.7975
     2.7999   3.0997   3.1058   3.1071   3.1085   3.1096   3.1146   3.3695
     3.3714   3.3743   3.3820   3.3864   3.3902   3.7307   3.7346   3.7385
     3.7522   3.7562   3.7612   3.8360   3.8392   3.8433   4.1066   4.1104
     4.1141   4.1146   4.1173   4.1225   4.1499   4.1532   4.1580   4.4131
     4.4676   4.4706   4.4746   4.7105   4.7141   4.7187   4.7752   4.7784
     4.7836   4.9319   4.9405   5.2384   5.2431   5.2493   5.7191   5.7289
     6.9330   6.9356   6.9400   7.3725   7.3754   7.3823   7.5987   7.8583
     7.8604   7.8667   7.9872   7.9917   7.9961   8.1481   8.1510   8.1545
     8.1668   8.1679   8.1732   8.3943   8.3983   8.4019   8.4038   8.4060
     8.4097   8.4483

          k =-0.2500 0.2500-0.2500 ( 52563 PWs)   bands (ev):

    -5.6251  -5.0988  -5.0963  -5.0936  -4.5993  -4.5969  -4.5941  -4.1642
    -4.0661  -4.0638  -4.0613  -3.6522  -3.6505  -3.6491  -3.6468  -3.6431
    -3.6378  -3.4576  -3.4553  -3.4492  -2.9631  -2.9607  -2.9575  -2.5925
    -2.5909  -2.5834  -2.4258  -2.4243  -2.4230  -2.4207  -2.4160  -2.4129
    -0.8851  -0.8826  -0.8811  -0.8780  -0.8750  -0.8710  -0.7855  -0.7830
    -0.7752  -0.6686  -0.6627  -0.6604  -0.5775  -0.5713  -0.5666   0.1300
     0.2021   0.2048   0.2070   0.2107   0.2124   0.2185   1.0829   1.0874
     1.0931   1.4152   1.4195   1.4201   2.0244   2.0270   2.0285   2.0301
     2.0314   2.0322   2.0848   2.0880   2.0891   2.6399   2.6408   2.6455
     2.7361   2.7380   2.7411   2.7432   2.7453   2.7465   2.7913   2.7954
     2.7967   3.1038   3.1045   3.1065   3.1073   3.1110   3.1134   3.3685
     3.3712   3.3718   3.3821   3.3861   3.3867   3.7338   3.7362   3.7391
     3.7562   3.7572   3.7661   3.8363   3.8375   3.8412   4.1122   4.1133
     4.1138   4.1164   4.1213   4.1247   4.1499   4.1517   4.1559   4.4169
     4.4658   4.4698   4.4704   4.7104   4.7116   4.7154   4.7790   4.7836
     4.7887   4.9325   4.9376   5.2379   5.2398   5.2448   5.7188   5.7244
     6.9323   6.9335   6.9378   7.3721   7.3753   7.3803   7.5972   7.8571
     7.8593   7.8641   7.9884   7.9945   7.9965   8.1485   8.1503   8.1539
     8.1659   8.1690   8.1702   8.3980   8.4007   8.4019   8.4056   8.4079
     8.4107   8.4460

          k = 0.2500-0.2500-0.2500 ( 52563 PWs)   bands (ev):

    -5.6250  -5.0992  -5.0964  -5.0938  -4.5994  -4.5965  -4.5941  -4.1621
    -4.0656  -4.0630  -4.0604  -3.6568  -3.6514  -3.6460  -3.6454  -3.6437
    -3.6420  -3.4601  -3.4543  -3.4520  -2.9596  -2.9564  -2.9540  -2.5955
    -2.5876  -2.5858  -2.4289  -2.4259  -2.4195  -2.4194  -2.4168  -2.4160
    -0.8858  -0.8827  -0.8764  -0.8754  -0.8738  -0.8729  -0.7856  -0.7777
    -0.7752  -0.6639  -0.6615  -0.6558  -0.5855  -0.5807  -0.5749   0.1226
     0.2032   0.2081   0.2125   0.2156   0.2164   0.2178   1.0777   1.0834
     1.0878   1.4166   1.4171   1.4214   2.0250   2.0267   2.0293   2.0301
     2.0309   2.0330   2.0881   2.0890   2.0916   2.6352   2.6388   2.6403
     2.7392   2.7413   2.7431   2.7455   2.7470   2.7499   2.7967   2.7980
     2.8021   3.1018   3.1048   3.1076   3.1092   3.1096   3.1115   3.3709
     3.3722   3.3751   3.3858   3.3863   3.3909   3.7294   3.7328   3.7358
     3.7494   3.7541   3.7565   3.8381   3.8414   3.8426   4.1043   4.1064
     4.1120   4.1142   4.1155   4.1166   4.1523   4.1558   4.1572   4.4091
     4.4708   4.4719   4.4770   4.7135   4.7171   4.7188   4.7697   4.7745
     4.7783   4.9350   4.9400   5.2424   5.2474   5.2492   5.7236   5.7293
     6.9345   6.9382   6.9410   7.3732   7.3781   7.3812   7.6002   7.8597
     7.8644   7.8664   7.9870   7.9890   7.9949   8.1491   8.1519   8.1545
     8.1666   8.1685   8.1744   8.3934   8.3968   8.3997   8.4024   8.4046
     8.4063   8.4505

     the Fermi energy is     6.3276 ev

!    total energy              =   -2990.53155030 Ry
     Harris-Foulkes estimate   =   -2990.53155029 Ry
     estimated scf accuracy    <          4.2E-10 Ry

     total all-electron energy =    -37124.667103 Ry

     The total energy is the sum of the following terms:

     one-electron contribution =     178.60680210 Ry
     hartree contribution      =      35.70130802 Ry
     xc contribution           =    -391.44199698 Ry
     ewald contribution        =    -534.00635771 Ry
     one-center paw contrib.   =   -2279.39130573 Ry
     smearing contrib. (-TS)   =       0.00000000 Ry

     convergence has been achieved in  13 iterations

     Forces acting on atoms (Ry/au):

     atom    1 type  1   force =    -0.01592802   -0.00005950   -0.00005140
     atom    2 type  1   force =    -0.00245853    0.00381182   -0.00248197
     atom    3 type  1   force =     0.00002759    0.00002880   -0.00002892
     atom    4 type  1   force =    -0.00004469   -0.00001277   -0.00003763
     atom    5 type  1   force =     0.00002667    0.00025207   -0.00002752
     atom    6 type  1   force =    -0.00005807   -0.00005824   -0.00003758
     atom    7 type  1   force =    -0.00050605   -0.00002122   -0.00003098
     atom    8 type  1   force =    -0.00000421    0.00002821   -0.00002690
     atom    9 type  1   force =    -0.00050316    0.00013993    0.00008744
     atom   10 type  1   force =     0.00003797   -0.00000290   -0.00002909
     atom   11 type  1   force =    -0.00048514    0.00004921   -0.00015972
     atom   12 type  1   force =     0.00270607    0.00393779   -0.00271531
     atom   13 type  1   force =    -0.00049299   -0.00013131    0.00007847
     atom   14 type  1   force =     0.00002786    0.00001722   -0.00001501
     atom   15 type  1   force =    -0.00050153    0.00014227   -0.00014134
     atom   16 type  1   force =     0.00005098   -0.00007052   -0.00004766
     atom   17 type  1   force =     0.00026871   -0.00016849    0.00027887
     atom   18 type  1   force =     0.00271989    0.00369708    0.00224812
     atom   19 type  1   force =     0.00006981    0.00001879   -0.00004852
     atom   20 type  1   force =     0.00008009   -0.00002155    0.00011402
     atom   21 type  1   force =     0.00025862    0.00036300   -0.00019966
     atom   22 type  1   force =     0.00028962    0.00005485    0.00027046
     atom   23 type  1   force =     0.00007412   -0.00001210    0.00010819
     atom   24 type  1   force =     0.00007116    0.00003810   -0.00004914
     atom   25 type  1   force =     0.00020730    0.00025400   -0.00008270
     atom   26 type  1   force =     0.00019927   -0.00024521   -0.00007598
     atom   27 type  1   force =     0.00019272   -0.00028836    0.00016052
     atom   28 type  1   force =    -0.00246643    0.00416236    0.00281848
     atom   29 type  1   force =     0.00001202   -0.00009824    0.00002147
     atom   30 type  1   force =     0.00001582    0.00010272    0.00001547
     atom   31 type  1   force =     0.00001466    0.00033278    0.00003666
     atom   32 type  1   force =    -0.00000710   -0.00013668    0.00004852
     atom   33 type  1   force =    -0.00003029    0.00003088    0.00004020
     atom   34 type  1   force =     0.00024573    0.00002888    0.00001832
     atom   35 type  1   force =    -0.00008787   -0.00050168    0.00013859
     atom   36 type  1   force =    -0.00017002   -0.00047385   -0.00007099
     atom   37 type  1   force =     0.00003678    0.00002603    0.00003669
     atom   38 type  1   force =    -0.00005197    0.00003845    0.00004088
     atom   39 type  1   force =     0.00009756   -0.00048564    0.00014856
     atom   40 type  1   force =     0.00404244    0.00217643    0.00259012
     atom   41 type  1   force =    -0.00023936    0.00019384   -0.00014771
     atom   42 type  1   force =     0.00415627   -0.00247413   -0.00259556
     atom   43 type  1   force =     0.00025929    0.00021266   -0.00014044
     atom   44 type  1   force =    -0.00029353    0.00019962    0.00006387
     atom   45 type  1   force =     0.00010362    0.00001657   -0.00003482
     atom   46 type  1   force =    -0.00013800   -0.00000780   -0.00002886
     atom   47 type  1   force =    -0.00009691    0.00001099   -0.00004076
     atom   48 type  1   force =     0.00033167    0.00001548   -0.00001823
     atom   49 type  1   force =    -0.00005819   -0.00004406    0.00005165
     atom   50 type  1   force =     0.00002781   -0.00000404    0.00002848
     atom   51 type  1   force =     0.00381133   -0.00242748    0.00248207
     atom   52 type  1   force =    -0.00001208   -0.01592690    0.00003915
     atom   53 type  1   force =     0.00025284   -0.00000324    0.00002737
     atom   54 type  1   force =    -0.00002164   -0.00003768    0.00003102
     atom   55 type  1   force =    -0.00005938   -0.00052623    0.00003692
     atom   56 type  1   force =     0.00002920    0.00002543    0.00002700
     atom   57 type  1   force =    -0.00004892    0.00009415   -0.00011479
     atom   58 type  1   force =     0.00013770    0.00026079    0.00020037
     atom   59 type  1   force =     0.00026222    0.00007069    0.00004819
     atom   60 type  1   force =     0.00009245    0.00026866   -0.00026411
     atom   61 type  1   force =     0.00380191    0.00252452   -0.00240471
     atom   62 type  1   force =    -0.00012197    0.00026982   -0.00026482
     atom   63 type  1   force =    -0.00006835    0.00008013   -0.00012707
     atom   64 type  1   force =    -0.00008539    0.00026480    0.00020376

     Total force =     0.027165     Total SCF correction =     0.000040

     Writing output data file pwscf.save
 
     init_run     :      9.58s CPU     12.85s WALL (       1 calls)
     electrons    :    307.02s CPU    322.70s WALL (       1 calls)
     forces       :      4.98s CPU      5.17s WALL (       1 calls)

     Called by init_run:
     wfcinit      :      8.87s CPU      9.02s WALL (       1 calls)
     potinit      :      0.26s CPU      0.27s WALL (       1 calls)

     Called by electrons:
     c_bands      :    273.83s CPU    285.85s WALL (      14 calls)
     sum_band     :     27.66s CPU     29.01s WALL (      14 calls)
     v_of_rho     :      0.97s CPU      0.98s WALL (      14 calls)
     newd         :      1.80s CPU      1.87s WALL (      14 calls)
     PAW_pot      :      2.36s CPU      2.37s WALL (      14 calls)
     mix_rho      :      0.58s CPU      0.59s WALL (      14 calls)

     Called by c_bands:
     init_us_2    :      5.38s CPU      5.46s WALL (     120 calls)
     cegterg      :    266.49s CPU    274.35s WALL (      56 calls)

     Called by sum_band:
     sum_band:bec :      0.05s CPU      0.06s WALL (      56 calls)
     addusdens    :      1.83s CPU      2.10s WALL (      14 calls)

     Called by *egterg:
     h_psi        :    124.52s CPU    125.08s WALL (     249 calls)
     s_psi        :     31.54s CPU     31.61s WALL (     249 calls)
     g_psi        :      1.22s CPU      1.22s WALL (     189 calls)
     cdiaghg      :     35.31s CPU     35.44s WALL (     241 calls)

     Called by h_psi:
     add_vuspsi   :     32.28s CPU     32.37s WALL (     249 calls)

     General routines
     calbec       :     49.83s CPU     50.04s WALL (     321 calls)
     fft          :      0.46s CPU      0.47s WALL (     195 calls)
     fftw         :     58.30s CPU     58.74s WALL (   57138 calls)
     davcio       :      0.00s CPU      0.07s WALL (       4 calls)
 
     Parallel routines
     fft_scatter  :     15.45s CPU     14.69s WALL (   57333 calls)
 
     PWSCF        :  5m21.93s CPU     5m52.29s WALL

 
   This run was terminated on:  13:56:19   3Feb2016            

=------------------------------------------------------------------------------=
   JOB DONE.
=------------------------------------------------------------------------------=
