
     Program PWSCF v.5.3.0 (svn rev. 11974) starts on  3Feb2016 at 13:34:12 

     This program is part of the open-source Quantum ESPRESSO suite
     for quantum simulation of materials; please cite
         "P. Giannozzi et al., J. Phys.:Condens. Matter 21 395502 (2009);
          URL http://www.quantum-espresso.org", 
     in publications or presentations arising from this work. More details at
     http://www.quantum-espresso.org/quote

     Parallel version (MPI), running on    16 processors
     R & G space division:  proc/nbgrp/npool/nimage =      16
     Reading input from Si.in

     Current dimensions of program PWSCF are:
     Max number of different atomic species (ntypx) = 10
     Max number of k-points (npk) =  40000
     Max angular momentum in pseudopotentials (lmaxx) =  3
               file Si.pbe-n-kjpaw_psl.0.1.UPF: wavefunction(s)  3S renormalized

     Subspace diagonalization in iterative solution of the eigenvalue problem:
     one sub-group per k-point group (pool) will be used
     scalapack distributed-memory algorithm (size of sub-group:  2*  2 procs)

     Message from routine find_sym:
     Not a group! Trying with lower acceptance parameter...
     Message from routine find_sym:
     Still not a group! symmetry disabled
 
     Parallelization info
     --------------------
     sticks:   dense  smooth     PW     G-vecs:    dense   smooth      PW
     Min         424     424    109                26332    26332    3467
     Max         425     425    110                26336    26336    3472
     Sum        6785    6785   1757               421349   421349   55515
 


     bravais-lattice index     =            0
     lattice parameter (alat)  =      20.6591  a.u.
     unit-cell volume          =    8817.2783 (a.u.)^3
     number of atoms/cell      =           64
     number of atomic types    =            1
     number of electrons       =       256.00
     number of Kohn-Sham states=          154
     kinetic-energy cutoff     =      50.0000  Ry
     charge density cutoff     =     200.0000  Ry
     convergence threshold     =      1.0E-09
     mixing beta               =       0.7000
     number of iterations used =            8  plain     mixing
     Exchange-correlation      =  SLA  PW   PBX  PBC ( 1  4  3  4 0 0)

     celldm(1)=  20.659106  celldm(2)=   0.000000  celldm(3)=   0.000000
     celldm(4)=   0.000000  celldm(5)=   0.000000  celldm(6)=   0.000000

     crystal axes: (cart. coord. in units of alat)
               a(1) = (   1.000000   0.000000   0.000000 )  
               a(2) = (   0.000000   1.000000   0.000000 )  
               a(3) = (   0.000000   0.000000   1.000000 )  

     reciprocal axes: (cart. coord. in units 2 pi/alat)
               b(1) = (  1.000000  0.000000  0.000000 )  
               b(2) = (  0.000000  1.000000  0.000000 )  
               b(3) = (  0.000000  0.000000  1.000000 )  


     PseudoPot. # 1 for Si read from file:
     /home/togo/espresso/pseudo/Si.pbe-n-kjpaw_psl.0.1.UPF
     MD5 check sum: b9d333a40e496bef61db012f150758bf
     Pseudo is Projector augmented-wave + core cor, Zval =  4.0
     Generated using "atomic" code by A. Dal Corso  v.5.0.2 svn rev. 9415
     Shape of augmentation charge: PSQ
     Using radial grid of 1141 points,  4 beta functions with: 
                l(1) =   0
                l(2) =   0
                l(3) =   1
                l(4) =   1
     Q(r) pseudized with 0 coefficients 


     atomic species   valence    mass     pseudopotential
        Si             4.00    28.08550     Si( 1.00)

     No symmetry found



   Cartesian axes

     site n.     atom                  positions (alat units)
         1           Si  tau(   1) = (   0.4404043   0.4375000   0.4375000  )
         2           Si  tau(   2) = (   0.9375000   0.4375000   0.4375000  )
         3           Si  tau(   3) = (   0.4375000   0.9375000   0.4375000  )
         4           Si  tau(   4) = (   0.9375000   0.9375000   0.4375000  )
         5           Si  tau(   5) = (   0.4375000   0.4375000   0.9375000  )
         6           Si  tau(   6) = (   0.9375000   0.4375000   0.9375000  )
         7           Si  tau(   7) = (   0.4375000   0.9375000   0.9375000  )
         8           Si  tau(   8) = (   0.9375000   0.9375000   0.9375000  )
         9           Si  tau(   9) = (   0.4375000   0.1875000   0.1875000  )
        10           Si  tau(  10) = (   0.9375000   0.1875000   0.1875000  )
        11           Si  tau(  11) = (   0.4375000   0.6875000   0.1875000  )
        12           Si  tau(  12) = (   0.9404043   0.6875000   0.1875000  )
        13           Si  tau(  13) = (   0.4375000   0.1875000   0.6875000  )
        14           Si  tau(  14) = (   0.9375000   0.1875000   0.6875000  )
        15           Si  tau(  15) = (   0.4375000   0.6875000   0.6875000  )
        16           Si  tau(  16) = (   0.9375000   0.6875000   0.6875000  )
        17           Si  tau(  17) = (   0.1875000   0.4375000   0.1875000  )
        18           Si  tau(  18) = (   0.6875000   0.4375000   0.1875000  )
        19           Si  tau(  19) = (   0.1875000   0.9375000   0.1875000  )
        20           Si  tau(  20) = (   0.6875000   0.9375000   0.1875000  )
        21           Si  tau(  21) = (   0.1875000   0.4375000   0.6875000  )
        22           Si  tau(  22) = (   0.6875000   0.4375000   0.6875000  )
        23           Si  tau(  23) = (   0.1875000   0.9375000   0.6875000  )
        24           Si  tau(  24) = (   0.6875000   0.9375000   0.6875000  )
        25           Si  tau(  25) = (   0.1875000   0.1875000   0.4375000  )
        26           Si  tau(  26) = (   0.6875000   0.1875000   0.4375000  )
        27           Si  tau(  27) = (   0.1875000   0.6875000   0.4375000  )
        28           Si  tau(  28) = (   0.6875000   0.6875000   0.4375000  )
        29           Si  tau(  29) = (   0.1875000   0.1875000   0.9375000  )
        30           Si  tau(  30) = (   0.6875000   0.1875000   0.9375000  )
        31           Si  tau(  31) = (   0.1875000   0.6875000   0.9375000  )
        32           Si  tau(  32) = (   0.6875000   0.6875000   0.9375000  )
        33           Si  tau(  33) = (   0.0625000   0.0625000   0.0625000  )
        34           Si  tau(  34) = (   0.5625000   0.0625000   0.0625000  )
        35           Si  tau(  35) = (   0.0625000   0.5625000   0.0625000  )
        36           Si  tau(  36) = (   0.5625000   0.5625000   0.0625000  )
        37           Si  tau(  37) = (   0.0625000   0.0625000   0.5625000  )
        38           Si  tau(  38) = (   0.5625000   0.0625000   0.5625000  )
        39           Si  tau(  39) = (   0.0625000   0.5625000   0.5625000  )
        40           Si  tau(  40) = (   0.5625000   0.5625000   0.5625000  )
        41           Si  tau(  41) = (   0.0625000   0.3125000   0.3125000  )
        42           Si  tau(  42) = (   0.5625000   0.3125000   0.3125000  )
        43           Si  tau(  43) = (   0.0625000   0.8125000   0.3125000  )
        44           Si  tau(  44) = (   0.5625000   0.8125000   0.3125000  )
        45           Si  tau(  45) = (   0.0625000   0.3125000   0.8125000  )
        46           Si  tau(  46) = (   0.5625000   0.3125000   0.8125000  )
        47           Si  tau(  47) = (   0.0625000   0.8125000   0.8125000  )
        48           Si  tau(  48) = (   0.5625000   0.8125000   0.8125000  )
        49           Si  tau(  49) = (   0.3125000   0.0625000   0.3125000  )
        50           Si  tau(  50) = (   0.8125000   0.0625000   0.3125000  )
        51           Si  tau(  51) = (   0.3125000   0.5625000   0.3125000  )
        52           Si  tau(  52) = (   0.8125000   0.5625000   0.3125000  )
        53           Si  tau(  53) = (   0.3125000   0.0625000   0.8125000  )
        54           Si  tau(  54) = (   0.8125000   0.0625000   0.8125000  )
        55           Si  tau(  55) = (   0.3125000   0.5625000   0.8125000  )
        56           Si  tau(  56) = (   0.8125000   0.5625000   0.8125000  )
        57           Si  tau(  57) = (   0.3125000   0.3125000   0.0625000  )
        58           Si  tau(  58) = (   0.8125000   0.3125000   0.0625000  )
        59           Si  tau(  59) = (   0.3125000   0.8125000   0.0625000  )
        60           Si  tau(  60) = (   0.8125000   0.8125000   0.0625000  )
        61           Si  tau(  61) = (   0.3125000   0.3125000   0.5625000  )
        62           Si  tau(  62) = (   0.8125000   0.3125000   0.5625000  )
        63           Si  tau(  63) = (   0.3125000   0.8125000   0.5625000  )
        64           Si  tau(  64) = (   0.8125000   0.8125000   0.5625000  )

     number of k points=     4  gaussian smearing, width (Ry)=  0.0100
                       cart. coord. in units 2pi/alat
        k(    1) = (   0.2500000   0.2500000   0.2500000), wk =   0.5000000
        k(    2) = (   0.2500000  -0.2500000  -0.2500000), wk =   0.5000000
        k(    3) = (   0.2500000   0.2500000  -0.2500000), wk =   0.5000000
        k(    4) = (   0.2500000  -0.2500000   0.2500000), wk =   0.5000000

     Dense  grid:   421349 G-vectors     FFT dimensions: (  96,  96,  96)

     Largest allocated arrays     est. size (Mb)     dimensions
        Kohn-Sham Wavefunctions         7.72 Mb     (    3285,  154)
        NL pseudopotentials            25.66 Mb     (    3285,  512)
        Each V/rho on FFT grid          0.84 Mb     (   55296)
        Each G-vector array             0.20 Mb     (   26336)
        G-vector shells                 0.01 Mb     (    1719)
     Largest temporary arrays     est. size (Mb)     dimensions
        Auxiliary wavefunctions        30.88 Mb     (    3285,  616)
        Each subspace H/S matrix        1.45 Mb     (     308,  308)
        Each <psi_i|beta_j> matrix      1.20 Mb     (     512,  154)
        Arrays for rho mixing           6.75 Mb     (   55296,    8)

     Check: negative/imaginary core charge=   -0.000001    0.000000

     Initial potential from superposition of free atoms

     starting charge  255.96421, renormalised to  256.00000
     Starting wfc are  256 randomized atomic wfcs
     Checking if some PAW data can be deallocated... 

     total cpu time spent up to now is        9.7 secs

     per-process dynamical memory:   114.7 Mb

     Self-consistent Calculation

     iteration #  1     ecut=    50.00 Ry     beta=0.70
     Davidson diagonalization with overlap
     ethr =  1.00E-02,  avg # of iterations =  3.0

     Threshold (ethr) on eigenvalues was too large:
     Diagonalizing with lowered threshold

     Davidson diagonalization with overlap
     ethr =  7.00E-04,  avg # of iterations =  1.0

     total cpu time spent up to now is       43.6 secs

     total energy              =   -2990.45691643 Ry
     Harris-Foulkes estimate   =   -2990.87684550 Ry
     estimated scf accuracy    <       1.77337042 Ry

     iteration #  2     ecut=    50.00 Ry     beta=0.70
     Davidson diagonalization with overlap
     ethr =  6.93E-04,  avg # of iterations =  1.0

     total cpu time spent up to now is       55.5 secs

     total energy              =   -2990.52359503 Ry
     Harris-Foulkes estimate   =   -2990.52748319 Ry
     estimated scf accuracy    <       0.07632050 Ry

     iteration #  3     ecut=    50.00 Ry     beta=0.70
     Davidson diagonalization with overlap
     ethr =  2.98E-05,  avg # of iterations = 11.0

     total cpu time spent up to now is       82.7 secs

     total energy              =   -2990.53052559 Ry
     Harris-Foulkes estimate   =   -2990.53139006 Ry
     estimated scf accuracy    <       0.00204635 Ry

     iteration #  4     ecut=    50.00 Ry     beta=0.70
     Davidson diagonalization with overlap
     ethr =  7.99E-07,  avg # of iterations =  5.0

     total cpu time spent up to now is      112.0 secs

     total energy              =   -2990.53025373 Ry
     Harris-Foulkes estimate   =   -2990.53287028 Ry
     estimated scf accuracy    <       0.00817597 Ry

     iteration #  5     ecut=    50.00 Ry     beta=0.70
     Davidson diagonalization with overlap
     ethr =  7.99E-07,  avg # of iterations =  5.0

     total cpu time spent up to now is      136.0 secs

     total energy              =   -2990.53147398 Ry
     Harris-Foulkes estimate   =   -2990.53160871 Ry
     estimated scf accuracy    <       0.00039250 Ry

     iteration #  6     ecut=    50.00 Ry     beta=0.70
     Davidson diagonalization with overlap
     ethr =  1.53E-07,  avg # of iterations =  2.0

     total cpu time spent up to now is      150.8 secs

     total energy              =   -2990.53154260 Ry
     Harris-Foulkes estimate   =   -2990.53155930 Ry
     estimated scf accuracy    <       0.00004868 Ry

     iteration #  7     ecut=    50.00 Ry     beta=0.70
     Davidson diagonalization with overlap
     ethr =  1.90E-08,  avg # of iterations =  2.8

     total cpu time spent up to now is      167.0 secs

     total energy              =   -2990.53155153 Ry
     Harris-Foulkes estimate   =   -2990.53155304 Ry
     estimated scf accuracy    <       0.00000341 Ry

     iteration #  8     ecut=    50.00 Ry     beta=0.70
     Davidson diagonalization with overlap
     ethr =  1.33E-09,  avg # of iterations =  3.0

     total cpu time spent up to now is      186.2 secs

     total energy              =   -2990.53155254 Ry
     Harris-Foulkes estimate   =   -2990.53155274 Ry
     estimated scf accuracy    <       0.00000045 Ry

     iteration #  9     ecut=    50.00 Ry     beta=0.70
     Davidson diagonalization with overlap
     ethr =  1.76E-10,  avg # of iterations =  3.0

     total cpu time spent up to now is      202.7 secs

     total energy              =   -2990.53155255 Ry
     Harris-Foulkes estimate   =   -2990.53155266 Ry
     estimated scf accuracy    <       0.00000018 Ry

     iteration # 10     ecut=    50.00 Ry     beta=0.70
     Davidson diagonalization with overlap
     ethr =  7.18E-11,  avg # of iterations =  2.8

     total cpu time spent up to now is      219.6 secs

     total energy              =   -2990.53155254 Ry
     Harris-Foulkes estimate   =   -2990.53155259 Ry
     estimated scf accuracy    <       0.00000006 Ry

     iteration # 11     ecut=    50.00 Ry     beta=0.70
     Davidson diagonalization with overlap
     ethr =  2.27E-11,  avg # of iterations =  2.0

     total cpu time spent up to now is      235.0 secs

     total energy              =   -2990.53155255 Ry
     Harris-Foulkes estimate   =   -2990.53155255 Ry
     estimated scf accuracy    <          2.3E-09 Ry

     iteration # 12     ecut=    50.00 Ry     beta=0.70
     Davidson diagonalization with overlap
     ethr =  8.79E-13,  avg # of iterations =  3.0

     total cpu time spent up to now is      257.6 secs

     total energy              =   -2990.53155255 Ry
     Harris-Foulkes estimate   =   -2990.53155255 Ry
     estimated scf accuracy    <          2.0E-09 Ry

     iteration # 13     ecut=    50.00 Ry     beta=0.70
     Davidson diagonalization with overlap
     ethr =  7.79E-13,  avg # of iterations =  2.0

     total cpu time spent up to now is      273.4 secs

     End of self-consistent calculation

          k = 0.2500 0.2500 0.2500 ( 52563 PWs)   bands (ev):

    -5.6250  -5.0996  -5.0966  -5.0932  -4.5996  -4.5971  -4.5934  -4.1623
    -4.0664  -4.0630  -4.0595  -3.6574  -3.6520  -3.6471  -3.6452  -3.6419
    -3.6414  -3.4618  -3.4528  -3.4519  -2.9604  -2.9571  -2.9526  -2.5940
    -2.5885  -2.5863  -2.4308  -2.4249  -2.4212  -2.4189  -2.4157  -2.4150
    -0.8851  -0.8833  -0.8781  -0.8763  -0.8727  -0.8719  -0.7808  -0.7808
    -0.7766  -0.6665  -0.6605  -0.6542  -0.5857  -0.5796  -0.5757   0.1225
     0.2059   0.2067   0.2110   0.2128   0.2167   0.2205   1.0808   1.0820
     1.0860   1.4128   1.4209   1.4213   2.0231   2.0279   2.0291   2.0291
     2.0327   2.0335   2.0862   2.0904   2.0916   2.6365   2.6379   2.6399
     2.7391   2.7398   2.7424   2.7445   2.7501   2.7515   2.7940   2.8005
     2.8012   3.1025   3.1034   3.1071   3.1080   3.1100   3.1134   3.3701
     3.3735   3.3748   3.3823   3.3898   3.3908   3.7306   3.7320   3.7350
     3.7491   3.7540   3.7572   3.8387   3.8393   3.8440   4.1003   4.1114
     4.1124   4.1135   4.1150   4.1163   4.1529   4.1536   4.1590   4.4087
     4.4710   4.4733   4.4757   4.7139   4.7148   4.7207   4.7709   4.7737
     4.7778   4.9325   4.9428   5.2429   5.2443   5.2516   5.7207   5.7321
     6.9326   6.9403   6.9409   7.3748   7.3763   7.3814   7.6002   7.8609
     7.8616   7.8678   7.9873   7.9878   7.9957   8.1495   8.1512   8.1541
     8.1658   8.1710   8.1734   8.3966   8.3966   8.3982   8.4010   8.4039
     8.4066   8.4508

          k = 0.2500-0.2500-0.2500 ( 52563 PWs)   bands (ev):

    -5.6250  -5.0997  -5.0966  -5.0932  -4.5996  -4.5971  -4.5934  -4.1623
    -4.0664  -4.0630  -4.0595  -3.6574  -3.6520  -3.6471  -3.6452  -3.6419
    -3.6414  -3.4618  -3.4528  -3.4519  -2.9604  -2.9571  -2.9526  -2.5940
    -2.5885  -2.5863  -2.4308  -2.4249  -2.4212  -2.4189  -2.4157  -2.4150
    -0.8851  -0.8833  -0.8781  -0.8763  -0.8727  -0.8719  -0.7808  -0.7808
    -0.7766  -0.6665  -0.6605  -0.6542  -0.5857  -0.5796  -0.5757   0.1225
     0.2059   0.2067   0.2110   0.2128   0.2167   0.2205   1.0808   1.0820
     1.0860   1.4128   1.4209   1.4213   2.0231   2.0279   2.0291   2.0291
     2.0327   2.0335   2.0862   2.0904   2.0916   2.6365   2.6379   2.6399
     2.7391   2.7398   2.7424   2.7445   2.7501   2.7515   2.7940   2.8005
     2.8012   3.1025   3.1034   3.1071   3.1080   3.1100   3.1134   3.3701
     3.3735   3.3748   3.3823   3.3898   3.3908   3.7307   3.7320   3.7350
     3.7491   3.7540   3.7572   3.8387   3.8393   3.8440   4.1003   4.1114
     4.1124   4.1135   4.1150   4.1163   4.1529   4.1536   4.1590   4.4087
     4.4710   4.4733   4.4757   4.7139   4.7148   4.7207   4.7710   4.7737
     4.7778   4.9325   4.9428   5.2429   5.2443   5.2516   5.7207   5.7321
     6.9326   6.9403   6.9409   7.3748   7.3763   7.3814   7.6002   7.8609
     7.8616   7.8678   7.9873   7.9878   7.9957   8.1495   8.1512   8.1541
     8.1658   8.1710   8.1734   8.3966   8.3966   8.3982   8.4010   8.4039
     8.4066   8.4508

          k = 0.2500 0.2500-0.2500 ( 52563 PWs)   bands (ev):

    -5.6251  -5.0988  -5.0978  -5.0921  -4.5995  -4.5983  -4.5927  -4.1641
    -4.0665  -4.0650  -4.0597  -3.6509  -3.6490  -3.6488  -3.6475  -3.6456
    -3.6375  -3.4578  -3.4568  -3.4477  -2.9644  -2.9605  -2.9563  -2.5921
    -2.5898  -2.5848  -2.4257  -2.4238  -2.4230  -2.4215  -2.4199  -2.4090
    -0.8855  -0.8840  -0.8809  -0.8785  -0.8777  -0.8662  -0.7844  -0.7807
    -0.7790  -0.6694  -0.6641  -0.6578  -0.5785  -0.5738  -0.5631   0.1299
     0.2023   0.2038   0.2080   0.2105   0.2113   0.2198   1.0818   1.0857
     1.0957   1.4145   1.4167   1.4237   2.0236   2.0276   2.0281   2.0286
     2.0307   2.0351   2.0851   2.0857   2.0908   2.6404   2.6422   2.6435
     2.7367   2.7378   2.7413   2.7425   2.7454   2.7464   2.7909   2.7939
     2.7989   3.1026   3.1054   3.1064   3.1073   3.1083   3.1164   3.3677
     3.3704   3.3729   3.3826   3.3828   3.3902   3.7334   3.7350   3.7410
     3.7554   3.7593   3.7645   3.8342   3.8384   3.8425   4.1116   4.1130
     4.1139   4.1163   4.1190   4.1277   4.1477   4.1522   4.1577   4.4175
     4.4655   4.4686   4.4717   4.7081   4.7132   4.7159   4.7786   4.7810
     4.7920   4.9299   4.9401   5.2348   5.2416   5.2459   5.7160   5.7272
     6.9317   6.9319   6.9400   7.3700   7.3758   7.3821   7.5972   7.8550
     7.8596   7.8659   7.9874   7.9959   7.9960   8.1466   8.1518   8.1544
     8.1656   8.1672   8.1725   8.3961   8.4015   8.4020   8.4036   8.4082
     8.4131   8.4462

          k = 0.2500-0.2500 0.2500 ( 52563 PWs)   bands (ev):

    -5.6251  -5.0988  -5.0978  -5.0921  -4.5995  -4.5983  -4.5927  -4.1641
    -4.0665  -4.0650  -4.0597  -3.6509  -3.6490  -3.6488  -3.6475  -3.6456
    -3.6375  -3.4578  -3.4568  -3.4477  -2.9644  -2.9605  -2.9563  -2.5921
    -2.5898  -2.5848  -2.4257  -2.4238  -2.4230  -2.4215  -2.4199  -2.4090
    -0.8855  -0.8840  -0.8809  -0.8785  -0.8777  -0.8662  -0.7844  -0.7807
    -0.7790  -0.6694  -0.6641  -0.6578  -0.5785  -0.5738  -0.5631   0.1299
     0.2023   0.2038   0.2080   0.2105   0.2113   0.2198   1.0818   1.0856
     1.0957   1.4145   1.4167   1.4237   2.0236   2.0276   2.0281   2.0286
     2.0307   2.0351   2.0851   2.0857   2.0908   2.6404   2.6422   2.6435
     2.7367   2.7378   2.7413   2.7425   2.7454   2.7464   2.7909   2.7939
     2.7989   3.1026   3.1054   3.1064   3.1073   3.1083   3.1164   3.3677
     3.3704   3.3729   3.3826   3.3828   3.3902   3.7334   3.7350   3.7410
     3.7554   3.7593   3.7645   3.8342   3.8384   3.8425   4.1116   4.1130
     4.1139   4.1163   4.1190   4.1277   4.1477   4.1522   4.1577   4.4175
     4.4655   4.4686   4.4717   4.7081   4.7132   4.7159   4.7786   4.7810
     4.7920   4.9299   4.9401   5.2348   5.2416   5.2459   5.7160   5.7272
     6.9317   6.9319   6.9400   7.3700   7.3758   7.3821   7.5972   7.8550
     7.8596   7.8659   7.9874   7.9959   7.9960   8.1466   8.1518   8.1544
     8.1656   8.1672   8.1725   8.3961   8.4015   8.4020   8.4036   8.4082
     8.4131   8.4462

     the Fermi energy is     6.3279 ev

!    total energy              =   -2990.53155256 Ry
     Harris-Foulkes estimate   =   -2990.53155255 Ry
     estimated scf accuracy    <          3.8E-10 Ry

     total all-electron energy =    -37124.667106 Ry

     The total energy is the sum of the following terms:

     one-electron contribution =     178.60684947 Ry
     hartree contribution      =      35.70128475 Ry
     xc contribution           =    -391.44199728 Ry
     ewald contribution        =    -534.00638340 Ry
     one-center paw contrib.   =   -2279.39130609 Ry
     smearing contrib. (-TS)   =       0.00000000 Ry

     convergence has been achieved in  13 iterations

     Forces acting on atoms (Ry/au):

     atom    1 type  1   force =    -0.01588839   -0.00001014    0.00000988
     atom    2 type  1   force =    -0.00050126   -0.00010963    0.00010969
     atom    3 type  1   force =     0.00005403   -0.00000916   -0.00000870
     atom    4 type  1   force =    -0.00053521   -0.00011372   -0.00011439
     atom    5 type  1   force =     0.00005416    0.00000911    0.00000878
     atom    6 type  1   force =    -0.00053544    0.00011387    0.00011425
     atom    7 type  1   force =    -0.00047455    0.00000976   -0.00000981
     atom    8 type  1   force =    -0.00049902    0.00010954   -0.00010972
     atom    9 type  1   force =    -0.00053612    0.00011393    0.00011354
     atom   10 type  1   force =     0.00005508    0.00000964    0.00000918
     atom   11 type  1   force =    -0.00050139    0.00010958   -0.00010996
     atom   12 type  1   force =    -0.01588861    0.00000948   -0.00001024
     atom   13 type  1   force =    -0.00049996   -0.00010960    0.00010984
     atom   14 type  1   force =    -0.00047379   -0.00000935    0.00001012
     atom   15 type  1   force =    -0.00053475   -0.00011385   -0.00011334
     atom   16 type  1   force =     0.00005388   -0.00000971   -0.00000902
     atom   17 type  1   force =     0.00046994   -0.00034275    0.00011317
     atom   18 type  1   force =     0.00047020    0.00011432   -0.00034282
     atom   19 type  1   force =     0.00028107    0.00022353    0.00003649
     atom   20 type  1   force =     0.00027410   -0.00023739    0.00018593
     atom   21 type  1   force =     0.00027460    0.00018509   -0.00023632
     atom   22 type  1   force =     0.00028046    0.00003717    0.00022377
     atom   23 type  1   force =     0.00008637   -0.00006588    0.00008699
     atom   24 type  1   force =     0.00008484    0.00008658   -0.00006640
     atom   25 type  1   force =     0.00027467    0.00023680   -0.00018583
     atom   26 type  1   force =     0.00028047   -0.00022314   -0.00003656
     atom   27 type  1   force =     0.00047007   -0.00011377    0.00034203
     atom   28 type  1   force =     0.00046967    0.00034216   -0.00011376
     atom   29 type  1   force =     0.00008587   -0.00008630    0.00006655
     atom   30 type  1   force =     0.00008510    0.00006717   -0.00008718
     atom   31 type  1   force =     0.00028113   -0.00003689   -0.00022294
     atom   32 type  1   force =     0.00027412   -0.00018645    0.00023670
     atom   33 type  1   force =    -0.00008119   -0.00000729   -0.00001900
     atom   34 type  1   force =     0.00028134    0.00000284    0.00000076
     atom   35 type  1   force =     0.00395523   -0.00267845   -0.00268007
     atom   36 type  1   force =    -0.00007293    0.00001189   -0.00000003
     atom   37 type  1   force =     0.00028298   -0.00000237   -0.00000104
     atom   38 type  1   force =    -0.00008256    0.00000756    0.00001946
     atom   39 type  1   force =    -0.00007330   -0.00001235   -0.00000042
     atom   40 type  1   force =     0.00395531    0.00267801    0.00268047
     atom   41 type  1   force =    -0.00007272    0.00000030    0.00001148
     atom   42 type  1   force =     0.00395477   -0.00267968   -0.00267783
     atom   43 type  1   force =     0.00395541    0.00268013    0.00267771
     atom   44 type  1   force =    -0.00007304   -0.00000068   -0.00001213
     atom   45 type  1   force =     0.00028268    0.00000100    0.00000308
     atom   46 type  1   force =    -0.00008243   -0.00001859   -0.00000729
     atom   47 type  1   force =    -0.00008163    0.00001914    0.00000816
     atom   48 type  1   force =     0.00028190   -0.00000153   -0.00000300
     atom   49 type  1   force =    -0.00003063   -0.00001021    0.00002248
     atom   50 type  1   force =    -0.00003005    0.00001035   -0.00002256
     atom   51 type  1   force =     0.00379902   -0.00244388    0.00244333
     atom   52 type  1   force =     0.00379869    0.00244358   -0.00244426
     atom   53 type  1   force =     0.00023127    0.00000349   -0.00000346
     atom   54 type  1   force =     0.00023121   -0.00000294    0.00000317
     atom   55 type  1   force =    -0.00002971   -0.00002321    0.00001115
     atom   56 type  1   force =    -0.00003083    0.00002251   -0.00001021
     atom   57 type  1   force =    -0.00003065    0.00002460   -0.00000895
     atom   58 type  1   force =    -0.00003005   -0.00000759    0.00002426
     atom   59 type  1   force =     0.00024030   -0.00001018    0.00001005
     atom   60 type  1   force =     0.00379010   -0.00245142    0.00245077
     atom   61 type  1   force =     0.00379035    0.00245029   -0.00245032
     atom   62 type  1   force =     0.00024037    0.00001054   -0.00000994
     atom   63 type  1   force =    -0.00002980    0.00000922   -0.00002440
     atom   64 type  1   force =    -0.00003077   -0.00002503    0.00000866

     Total force =     0.027138     Total SCF correction =     0.000038

     Writing output data file pwscf.save
 
     init_run     :      8.12s CPU      8.24s WALL (       1 calls)
     electrons    :    256.20s CPU    264.76s WALL (       1 calls)
     forces       :      3.65s CPU      3.70s WALL (       1 calls)

     Called by init_run:
     wfcinit      :      7.61s CPU      7.67s WALL (       1 calls)
     potinit      :      0.20s CPU      0.20s WALL (       1 calls)

     Called by electrons:
     c_bands      :    231.57s CPU    237.00s WALL (      14 calls)
     sum_band     :     21.41s CPU     23.44s WALL (      14 calls)
     v_of_rho     :      0.51s CPU      0.52s WALL (      14 calls)
     newd         :      0.71s CPU      0.72s WALL (      14 calls)
     PAW_pot      :      2.00s CPU      2.01s WALL (      14 calls)
     mix_rho      :      0.17s CPU      0.17s WALL (      14 calls)

     Called by c_bands:
     init_us_2    :      1.25s CPU      1.27s WALL (     120 calls)
     cegterg      :    227.67s CPU    229.53s WALL (      56 calls)

     Called by sum_band:
     sum_band:bec :      0.04s CPU      0.04s WALL (      56 calls)
     addusdens    :      0.73s CPU      0.76s WALL (      14 calls)

     Called by *egterg:
     h_psi        :    108.81s CPU    109.15s WALL (     246 calls)
     s_psi        :     29.60s CPU     29.66s WALL (     246 calls)
     g_psi        :      0.68s CPU      0.68s WALL (     186 calls)
     cdiaghg      :     32.98s CPU     33.01s WALL (     238 calls)

     Called by h_psi:
     add_vuspsi   :     29.64s CPU     29.69s WALL (     246 calls)

     General routines
     calbec       :     43.92s CPU     44.03s WALL (     318 calls)
     fft          :      0.33s CPU      0.34s WALL (     195 calls)
     fftw         :     52.59s CPU     52.78s WALL (   56986 calls)
     davcio       :      0.00s CPU      0.02s WALL (       4 calls)
 
     Parallel routines
     fft_scatter  :     13.99s CPU     14.03s WALL (   57181 calls)
 
     PWSCF        :  4m30.50s CPU     4m58.53s WALL

 
   This run was terminated on:  13:39:11   3Feb2016            

=------------------------------------------------------------------------------=
   JOB DONE.
=------------------------------------------------------------------------------=
