<?xml version="1.0" encoding="ISO-8859-1"?>
<modeling>
 <generator>
  <i name="program" type="string">vasp </i>
  <i name="version" type="string">5.4.1  </i>
  <i name="subversion" type="string">05Feb16 (build Mar 26 2016 11:58:25) complex                          parallel </i>
  <i name="platform" type="string">IFC91_ompi </i>
  <i name="date" type="string">2017 03 12 </i>
  <i name="time" type="string">12:13:57 </i>
 </generator>
 <incar>
  <i type="string" name="PREC">accurate</i>
  <i type="int" name="IALGO">    38</i>
  <i type="logical" name="ADDGRID"> T  </i>
  <i type="int" name="NELMIN">     5</i>
  <i type="int" name="IBRION">    -1</i>
  <i name="EDIFF">      0.00000001</i>
  <i name="ENCUT">    300.00000000</i>
  <i type="logical" name="LREAL"> F  </i>
  <i type="int" name="ISMEAR">     0</i>
  <i name="SIGMA">      0.05000000</i>
  <i type="logical" name="LWAVE"> F  </i>
  <i type="logical" name="LCHARG"> F  </i>
  <v type="int" name="KPOINT_BSE">    -1     0     0     0</v>
 </incar>
 <kpoints>
  <generation param="Monkhorst-Pack">
   <v type="int" name="divisions">       2        2        2 </v>
   <v name="usershift">      0.00000000       0.00000000       0.00000000 </v>
   <v name="genvec1">      0.50000000       0.00000000       0.00000000 </v>
   <v name="genvec2">      0.00000000       0.50000000       0.00000000 </v>
   <v name="genvec3">      0.00000000       0.00000000       0.50000000 </v>
   <v name="shift">      0.50000000       0.50000000       0.50000000 </v>
  </generation>
  <varray name="kpointlist" >
   <v>       0.25000000       0.25000000       0.25000000 </v>
   <v>      -0.25000000       0.25000000       0.25000000 </v>
   <v>       0.25000000      -0.25000000       0.25000000 </v>
   <v>      -0.25000000      -0.25000000       0.25000000 </v>
  </varray>
  <varray name="weights" >
   <v>       0.25000000 </v>
   <v>       0.25000000 </v>
   <v>       0.25000000 </v>
   <v>       0.25000000 </v>
  </varray>
 </kpoints>
 <parameters>
  <separator name="general" >
   <i type="string" name="SYSTEM">unknown system</i>
   <i type="logical" name="LCOMPAT"> F  </i>
  </separator>
  <separator name="electronic" >
   <i type="string" name="PREC">accura</i>
   <i name="ENMAX">    300.00000000</i>
   <i name="ENAUG">    322.06900000</i>
   <i name="EDIFF">      0.00000001</i>
   <i type="int" name="IALGO">    38</i>
   <i type="int" name="IWAVPR">    10</i>
   <i type="int" name="NBANDS">   164</i>
   <i name="NELECT">    256.00000000</i>
   <i type="int" name="TURBO">     0</i>
   <i type="int" name="IRESTART">     0</i>
   <i type="int" name="NREBOOT">     0</i>
   <i type="int" name="NMIN">     0</i>
   <i name="EREF">      0.00000000</i>
   <separator name="electronic smearing" >
    <i type="int" name="ISMEAR">     0</i>
    <i name="SIGMA">      0.05000000</i>
    <i name="KSPACING">      0.50000000</i>
    <i type="logical" name="KGAMMA"> T  </i>
   </separator>
   <separator name="electronic projectors" >
    <i type="logical" name="LREAL"> F  </i>
    <v name="ROPT">      0.00000000</v>
    <i type="int" name="LMAXPAW">  -100</i>
    <i type="int" name="LMAXMIX">     2</i>
    <i type="logical" name="NLSPLINE"> F  </i>
   </separator>
   <separator name="electronic startup" >
    <i type="int" name="ISTART">     0</i>
    <i type="int" name="ICHARG">     2</i>
    <i type="int" name="INIWAV">     1</i>
   </separator>
   <separator name="electronic spin" >
    <i type="int" name="ISPIN">     1</i>
    <i type="logical" name="LNONCOLLINEAR"> F  </i>
    <v name="MAGMOM">      1.00000000      1.00000000      1.00000000      1.00000000      1.00000000      1.00000000      1.00000000      1.00000000      1.00000000      1.00000000      1.00000000      1.00000000      1.00000000      1.00000000      1.00000000      1.00000000      1.00000000      1.00000000      1.00000000      1.00000000
      1.00000000      1.00000000      1.00000000      1.00000000      1.00000000      1.00000000      1.00000000      1.00000000      1.00000000      1.00000000      1.00000000      1.00000000      1.00000000      1.00000000      1.00000000      1.00000000      1.00000000      1.00000000      1.00000000      1.00000000
      1.00000000      1.00000000      1.00000000      1.00000000      1.00000000      1.00000000      1.00000000      1.00000000      1.00000000      1.00000000      1.00000000      1.00000000      1.00000000      1.00000000      1.00000000      1.00000000      1.00000000      1.00000000      1.00000000      1.00000000
      1.00000000      1.00000000      1.00000000      1.00000000</v>
    <i name="NUPDOWN">     -1.00000000</i>
    <i type="logical" name="LSORBIT"> F  </i>
    <v name="SAXIS">      0.00000000      0.00000000      1.00000000</v>
    <i type="logical" name="LSPIRAL"> F  </i>
    <v name="QSPIRAL">      0.00000000      0.00000000      0.00000000</v>
    <i type="logical" name="LZEROZ"> F  </i>
   </separator>
   <separator name="electronic exchange-correlation" >
    <i type="logical" name="LASPH"> F  </i>
    <i type="logical" name="LMETAGGA"> F  </i>
   </separator>
   <separator name="electronic convergence" >
    <i type="int" name="NELM">    60</i>
    <i type="int" name="NELMDL">    -5</i>
    <i type="int" name="NELMIN">     5</i>
    <i name="ENINI">    300.00000000</i>
    <separator name="electronic convergence detail" >
     <i type="logical" name="LDIAG"> T  </i>
     <i type="logical" name="LSUBROT"> F  </i>
     <i name="WEIMIN">      0.00000000</i>
     <i name="EBREAK">      0.00000000</i>
     <i name="DEPER">      0.30000000</i>
     <i type="int" name="NRMM">     4</i>
     <i name="TIME">      0.40000000</i>
    </separator>
   </separator>
   <separator name="electronic mixer" >
    <i name="AMIX">      0.40000000</i>
    <i name="BMIX">      1.00000000</i>
    <i name="AMIN">      0.10000000</i>
    <i name="AMIX_MAG">      1.60000000</i>
    <i name="BMIX_MAG">      1.00000000</i>
    <separator name="electronic mixer details" >
     <i type="int" name="IMIX">     4</i>
     <i type="logical" name="MIXFIRST"> F  </i>
     <i type="int" name="MAXMIX">   -45</i>
     <i name="WC">    100.00000000</i>
     <i type="int" name="INIMIX">     1</i>
     <i type="int" name="MIXPRE">     1</i>
     <i type="int" name="MREMOVE">     5</i>
    </separator>
   </separator>
   <separator name="electronic dipolcorrection" >
    <i type="logical" name="LDIPOL"> F  </i>
    <i type="logical" name="LMONO"> F  </i>
    <i type="int" name="IDIPOL">     0</i>
    <i name="EPSILON">      1.00000000</i>
    <v name="DIPOL">   -100.00000000   -100.00000000   -100.00000000</v>
    <i name="EFIELD">      0.00000000</i>
   </separator>
  </separator>
  <separator name="grids" >
   <i type="int" name="NGX">    64</i>
   <i type="int" name="NGY">    64</i>
   <i type="int" name="NGZ">    64</i>
   <i type="int" name="NGXF">   128</i>
   <i type="int" name="NGYF">   128</i>
   <i type="int" name="NGZF">   128</i>
   <i type="logical" name="ADDGRID"> T  </i>
  </separator>
  <separator name="ionic" >
   <i type="int" name="NSW">     0</i>
   <i type="int" name="IBRION">    -1</i>
   <i type="int" name="ISIF">     2</i>
   <i name="PSTRESS">      0.00000000</i>
   <i name="EDIFFG">      0.00000010</i>
   <i type="int" name="NFREE">     0</i>
   <i name="POTIM">      0.50000000</i>
   <i name="SMASS">     -3.00000000</i>
   <i name="SCALEE">      1.00000000</i>
  </separator>
  <separator name="ionic md" >
   <i name="TEBEG">      0.00010000</i>
   <i name="TEEND">      0.00010000</i>
   <i type="int" name="NBLOCK">     1</i>
   <i type="int" name="KBLOCK">     1</i>
   <i type="int" name="NPACO">   256</i>
   <i name="APACO">     16.00000000</i>
  </separator>
  <separator name="symmetry" >
   <i type="int" name="ISYM">     2</i>
   <i name="SYMPREC">      0.00001000</i>
  </separator>
  <separator name="dos" >
   <i type="logical" name="LORBIT"> F  </i>
   <v name="RWIGS">     -1.00000000</v>
   <i type="int" name="NEDOS">   301</i>
   <i name="EMIN">     10.00000000</i>
   <i name="EMAX">    -10.00000000</i>
   <i name="EFERMI">      0.00000000</i>
  </separator>
  <separator name="writing" >
   <i type="int" name="NWRITE">     2</i>
   <i type="logical" name="LWAVE"> F  </i>
   <i type="logical" name="LCHARG"> F  </i>
   <i type="logical" name="LPARD"> F  </i>
   <i type="logical" name="LVTOT"> F  </i>
   <i type="logical" name="LVHAR"> F  </i>
   <i type="logical" name="LELF"> F  </i>
   <i type="logical" name="LOPTICS"> F  </i>
   <v name="STM">      0.00000000      0.00000000      0.00000000      0.00000000      0.00000000      0.00000000      0.00000000</v>
  </separator>
  <separator name="performance" >
   <i type="int" name="NPAR">     4</i>
   <i type="int" name="NSIM">     4</i>
   <i type="int" name="NBLK">    -1</i>
   <i type="logical" name="LPLANE"> T  </i>
   <i type="logical" name="LSCALAPACK"> T  </i>
   <i type="logical" name="LSCAAWARE"> F  </i>
   <i type="logical" name="LSCALU"> F  </i>
   <i type="logical" name="LASYNC"> F  </i>
   <i type="logical" name="LORBITALREAL"> F  </i>
  </separator>
  <separator name="miscellaneous" >
   <i type="int" name="IDIOT">     3</i>
   <i type="logical" name="LMUSIC"> F  </i>
   <v name="POMASS">     28.08500000</v>
   <v name="DARWINR">      0.00000000</v>
   <v name="DARWINV">      1.00000000</v>
   <i type="logical" name="LCORR"> T  </i>
  </separator>
  <i type="logical" name="GGA_COMPAT"> T  </i>
  <i type="logical" name="LBERRY"> F  </i>
  <i type="int" name="ICORELEVEL">     0</i>
  <i type="logical" name="LDAU"> F  </i>
  <i type="int" name="I_CONSTRAINED_M">     0</i>
  <separator name="electronic exchange-correlation" >
   <i type="string" name="GGA">--</i>
   <i type="int" name="VOSKOWN">     0</i>
   <i type="logical" name="LHFCALC"> F  </i>
   <i type="string" name="PRECFOCK"></i>
   <i type="logical" name="LSYMGRAD"> F  </i>
   <i type="logical" name="LHFONE"> F  </i>
   <i type="logical" name="LRHFCALC"> F  </i>
   <i type="logical" name="LTHOMAS"> F  </i>
   <i type="logical" name="LMODELHF"> F  </i>
   <i name="ENCUT4O">     -1.00000000</i>
   <i type="int" name="EXXOEP">     0</i>
   <i type="int" name="FOURORBIT">     0</i>
   <i name="AEXX">      0.00000000</i>
   <i name="HFALPHA">      0.00000000</i>
   <i name="MCALPHA">      0.00000000</i>
   <i name="ALDAX">      1.00000000</i>
   <i name="AGGAX">      1.00000000</i>
   <i name="ALDAC">      1.00000000</i>
   <i name="AGGAC">      1.00000000</i>
   <i type="int" name="NKREDX">     1</i>
   <i type="int" name="NKREDY">     1</i>
   <i type="int" name="NKREDZ">     1</i>
   <i type="logical" name="SHIFTRED"> F  </i>
   <i type="logical" name="ODDONLY"> F  </i>
   <i type="logical" name="EVENONLY"> F  </i>
   <i type="int" name="LMAXFOCK">     0</i>
   <i type="int" name="NMAXFOCKAE">     0</i>
   <i type="logical" name="LFOCKAEDFT"> F  </i>
   <i name="HFSCREEN">      0.00000000</i>
   <i name="HFSCREENC">      0.00000000</i>
   <i type="int" name="NBANDSGWLOW">     0</i>
  </separator>
  <separator name="vdW DFT" >
   <i type="logical" name="LUSE_VDW"> F  </i>
   <i name="Zab_VDW">     -0.84910000</i>
   <i name="PARAM1">      0.12340000</i>
   <i name="PARAM2">      1.00000000</i>
   <i name="PARAM3">      0.00000000</i>
  </separator>
  <separator name="model GW" >
   <i type="int" name="MODEL_GW">     0</i>
   <i name="MODEL_EPS0">     12.24990743</i>
   <i name="MODEL_ALPHA">      1.00000000</i>
  </separator>
  <separator name="linear response parameters" >
   <i type="logical" name="LEPSILON"> F  </i>
   <i type="logical" name="LRPA"> F  </i>
   <i type="logical" name="LNABLA"> F  </i>
   <i type="logical" name="LVEL"> F  </i>
   <i type="int" name="KINTER">     0</i>
   <i name="CSHIFT">      0.10000000</i>
   <i name="OMEGAMAX">     -1.00000000</i>
   <i name="DEG_THRESHOLD">      0.00200000</i>
  </separator>
  <separator name="orbital magnetization" >
   <i type="logical" name="NUCIND"> F  </i>
   <v name="MAGPOS">      0.00000000      0.00000000      0.00000000</v>
   <i type="logical" name="LNICSALL"> T  </i>
   <i type="logical" name="ORBITALMAG"> F  </i>
   <i type="logical" name="LMAGBLOCH"> F  </i>
   <i type="logical" name="LCHIMAG"> F  </i>
   <i type="logical" name="LGAUGE"> T  </i>
   <i type="int" name="MAGATOM">     0</i>
   <v name="MAGDIPOL">      0.00000000      0.00000000      0.00000000</v>
   <v name="AVECCONST">      0.00000000      0.00000000      0.00000000</v>
  </separator>
  <separator name="response functions" >
   <i type="logical" name="LADDER"> F  </i>
   <i type="logical" name="LFXC"> F  </i>
   <i type="logical" name="LHARTREE"> T  </i>
   <i type="int" name="IBSE">     0</i>
   <v type="int" name="KPOINT">    -1     0     0     0</v>
   <i type="logical" name="LTCTE"> F  </i>
   <i type="logical" name="LTETE"> F  </i>
   <i type="logical" name="LTRIPLET"> F  </i>
   <i type="logical" name="LFXCEPS"> F  </i>
   <i type="logical" name="LFXHEG"> F  </i>
   <i type="int" name="NATURALO">     0</i>
   <i type="logical" name="L2ORDER"> F  </i>
   <i type="logical" name="LUSEW"> F  </i>
   <i name="ENCUTGW">     -2.00000000</i>
   <i name="ENCUTGWSOFT">     -2.00000000</i>
   <i name="ENCUTLF">     -1.00000000</i>
   <i type="int" name="LMAXMP2">    -1</i>
   <i name="SCISSOR">      0.00000000</i>
   <i type="int" name="NOMEGA">     0</i>
   <i type="int" name="NOMEGAR">     0</i>
   <i type="int" name="NBANDSGW">    -1</i>
   <i type="int" name="NBANDSO">    -1</i>
   <i type="int" name="NBANDSV">    -1</i>
   <i type="int" name="NELM">     1</i>
   <i type="int" name="NELMHF">     1</i>
   <i type="int" name="DIM">     3</i>
   <i type="int" name="ANTIRES">     0</i>
   <i name="OMEGAMAX">    -30.00000000</i>
   <i name="OMEGAMIN">    -30.00000000</i>
   <i name="OMEGATL">   -200.00000000</i>
   <i type="int" name="OMEGAGRID">     0</i>
   <i name="CSHIFT">     -0.10000000</i>
   <i type="logical" name="SELFENERGY"> F  </i>
   <i type="logical" name="LSPECTRAL"> F  </i>
   <i type="logical" name="LSPECTRALGW"> F  </i>
   <i type="logical" name="LSINGLES"> F  </i>
   <i type="logical" name="LFERMIGW"> F  </i>
   <i type="logical" name="ODDONLYGW"> F  </i>
   <i type="logical" name="EVENONLYGW"> F  </i>
   <i type="int" name="NKREDLFX">     1</i>
   <i type="int" name="NKREDLFY">     1</i>
   <i type="int" name="NKREDLFZ">     1</i>
   <i type="int" name="MAXMEM">  1800</i>
   <i type="int" name="TELESCOPE">     0</i>
   <i type="int" name="TAUPAR">     1</i>
   <i type="int" name="OMEGAPAR">    -1</i>
   <i name="LAMBDA">      1.00000000</i>
  </separator>
  <separator name="External order field" >
   <i name="OFIELD_KAPPA">      0.00000000</i>
   <v name="OFIELD_K">      0.00000000      0.00000000      0.00000000</v>
   <i name="OFIELD_Q6_NEAR">      0.00000000</i>
   <i name="OFIELD_Q6_FAR">      0.00000000</i>
   <i name="OFIELD_A">      0.00000000</i>
  </separator>
 </parameters>
 <atominfo>
  <atoms>      64 </atoms>
  <types>       1 </types>
  <array name="atoms" >
   <dimension dim="1">ion</dimension>
   <field type="string">element</field>
   <field type="int">atomtype</field>
   <set>
    <rc><c>Si</c><c>   1</c></rc>
    <rc><c>Si</c><c>   1</c></rc>
    <rc><c>Si</c><c>   1</c></rc>
    <rc><c>Si</c><c>   1</c></rc>
    <rc><c>Si</c><c>   1</c></rc>
    <rc><c>Si</c><c>   1</c></rc>
    <rc><c>Si</c><c>   1</c></rc>
    <rc><c>Si</c><c>   1</c></rc>
    <rc><c>Si</c><c>   1</c></rc>
    <rc><c>Si</c><c>   1</c></rc>
    <rc><c>Si</c><c>   1</c></rc>
    <rc><c>Si</c><c>   1</c></rc>
    <rc><c>Si</c><c>   1</c></rc>
    <rc><c>Si</c><c>   1</c></rc>
    <rc><c>Si</c><c>   1</c></rc>
    <rc><c>Si</c><c>   1</c></rc>
    <rc><c>Si</c><c>   1</c></rc>
    <rc><c>Si</c><c>   1</c></rc>
    <rc><c>Si</c><c>   1</c></rc>
    <rc><c>Si</c><c>   1</c></rc>
    <rc><c>Si</c><c>   1</c></rc>
    <rc><c>Si</c><c>   1</c></rc>
    <rc><c>Si</c><c>   1</c></rc>
    <rc><c>Si</c><c>   1</c></rc>
    <rc><c>Si</c><c>   1</c></rc>
    <rc><c>Si</c><c>   1</c></rc>
    <rc><c>Si</c><c>   1</c></rc>
    <rc><c>Si</c><c>   1</c></rc>
    <rc><c>Si</c><c>   1</c></rc>
    <rc><c>Si</c><c>   1</c></rc>
    <rc><c>Si</c><c>   1</c></rc>
    <rc><c>Si</c><c>   1</c></rc>
    <rc><c>Si</c><c>   1</c></rc>
    <rc><c>Si</c><c>   1</c></rc>
    <rc><c>Si</c><c>   1</c></rc>
    <rc><c>Si</c><c>   1</c></rc>
    <rc><c>Si</c><c>   1</c></rc>
    <rc><c>Si</c><c>   1</c></rc>
    <rc><c>Si</c><c>   1</c></rc>
    <rc><c>Si</c><c>   1</c></rc>
    <rc><c>Si</c><c>   1</c></rc>
    <rc><c>Si</c><c>   1</c></rc>
    <rc><c>Si</c><c>   1</c></rc>
    <rc><c>Si</c><c>   1</c></rc>
    <rc><c>Si</c><c>   1</c></rc>
    <rc><c>Si</c><c>   1</c></rc>
    <rc><c>Si</c><c>   1</c></rc>
    <rc><c>Si</c><c>   1</c></rc>
    <rc><c>Si</c><c>   1</c></rc>
    <rc><c>Si</c><c>   1</c></rc>
    <rc><c>Si</c><c>   1</c></rc>
    <rc><c>Si</c><c>   1</c></rc>
    <rc><c>Si</c><c>   1</c></rc>
    <rc><c>Si</c><c>   1</c></rc>
    <rc><c>Si</c><c>   1</c></rc>
    <rc><c>Si</c><c>   1</c></rc>
    <rc><c>Si</c><c>   1</c></rc>
    <rc><c>Si</c><c>   1</c></rc>
    <rc><c>Si</c><c>   1</c></rc>
    <rc><c>Si</c><c>   1</c></rc>
    <rc><c>Si</c><c>   1</c></rc>
    <rc><c>Si</c><c>   1</c></rc>
    <rc><c>Si</c><c>   1</c></rc>
    <rc><c>Si</c><c>   1</c></rc>
   </set>
  </array>
  <array name="atomtypes" >
   <dimension dim="1">type</dimension>
   <field type="int">atomspertype</field>
   <field type="string">element</field>
   <field>mass</field>
   <field>valence</field>
   <field type="string">pseudopotential</field>
   <set>
    <rc><c>  64</c><c>Si</c><c>     28.08500000</c><c>      4.00000000</c><c>  PAW_PBE Si 05Jan2001                  </c></rc>
   </set>
  </array>
 </atominfo>
 <structure name="initialpos" >
  <crystal>
   <varray name="basis" >
    <v>      10.93252578       0.00000000       0.00000000 </v>
    <v>       0.00000000      10.93252578       0.00000000 </v>
    <v>       0.00000000       0.00000000      10.93252578 </v>
   </varray>
   <i name="volume">   1306.65679237 </i>
   <varray name="rec_basis" >
    <v>       0.09147017       0.00000000       0.00000000 </v>
    <v>       0.00000000       0.09147017       0.00000000 </v>
    <v>       0.00000000       0.00000000       0.09147017 </v>
   </varray>
  </crystal>
  <varray name="positions" >
   <v>       0.44024411       0.43750000       0.43750000 </v>
   <v>       0.93750000       0.43750000       0.43750000 </v>
   <v>       0.43750000       0.93750000       0.43750000 </v>
   <v>       0.93750000       0.93750000       0.43750000 </v>
   <v>       0.43750000       0.43750000       0.93750000 </v>
   <v>       0.93750000       0.43750000       0.93750000 </v>
   <v>       0.43750000       0.93750000       0.93750000 </v>
   <v>       0.93750000       0.93750000       0.93750000 </v>
   <v>       0.43750000       0.18750000       0.18750000 </v>
   <v>       0.93750000       0.18750000       0.18750000 </v>
   <v>       0.43750000       0.68750000       0.18750000 </v>
   <v>       0.93750000       0.68750000       0.18750000 </v>
   <v>       0.43750000       0.18750000       0.68750000 </v>
   <v>       0.93750000       0.18750000       0.68750000 </v>
   <v>       0.43750000       0.68750000       0.68750000 </v>
   <v>       0.93750000       0.68750000       0.68750000 </v>
   <v>       0.18750000       0.43750000       0.18750000 </v>
   <v>       0.68750000       0.43750000       0.18475589 </v>
   <v>       0.18750000       0.93750000       0.18750000 </v>
   <v>       0.68750000       0.93750000       0.18750000 </v>
   <v>       0.18750000       0.43750000       0.68750000 </v>
   <v>       0.68750000       0.43750000       0.68750000 </v>
   <v>       0.18750000       0.93750000       0.68750000 </v>
   <v>       0.68750000       0.93750000       0.68750000 </v>
   <v>       0.18750000       0.18750000       0.43750000 </v>
   <v>       0.68750000       0.18750000       0.43750000 </v>
   <v>       0.18750000       0.68750000       0.43750000 </v>
   <v>       0.68750000       0.68750000       0.43750000 </v>
   <v>       0.18750000       0.18750000       0.93750000 </v>
   <v>       0.68750000       0.18750000       0.93750000 </v>
   <v>       0.18750000       0.68750000       0.93750000 </v>
   <v>       0.68750000       0.68750000       0.93750000 </v>
   <v>       0.06250000       0.06250000       0.06250000 </v>
   <v>       0.56250000       0.06250000       0.06250000 </v>
   <v>       0.06250000       0.56250000       0.06250000 </v>
   <v>       0.56250000       0.56250000       0.06250000 </v>
   <v>       0.06250000       0.06250000       0.56250000 </v>
   <v>       0.56250000       0.06250000       0.56250000 </v>
   <v>       0.06250000       0.56250000       0.56250000 </v>
   <v>       0.56250000       0.56250000       0.56250000 </v>
   <v>       0.06250000       0.31250000       0.31250000 </v>
   <v>       0.56250000       0.31250000       0.31250000 </v>
   <v>       0.06250000       0.81250000       0.31250000 </v>
   <v>       0.56250000       0.81250000       0.31250000 </v>
   <v>       0.06250000       0.31250000       0.81250000 </v>
   <v>       0.56250000       0.31250000       0.81250000 </v>
   <v>       0.06250000       0.81250000       0.81250000 </v>
   <v>       0.56250000       0.81250000       0.81250000 </v>
   <v>       0.31250000       0.06250000       0.31250000 </v>
   <v>       0.81250000       0.06250000       0.31250000 </v>
   <v>       0.31250000       0.56250000       0.31250000 </v>
   <v>       0.81250000       0.56250000       0.31250000 </v>
   <v>       0.31250000       0.06250000       0.81250000 </v>
   <v>       0.81250000       0.06250000       0.81250000 </v>
   <v>       0.31250000       0.56250000       0.81250000 </v>
   <v>       0.81250000       0.56250000       0.81250000 </v>
   <v>       0.31250000       0.31250000       0.06250000 </v>
   <v>       0.81250000       0.31250000       0.06250000 </v>
   <v>       0.31250000       0.81250000       0.06250000 </v>
   <v>       0.81250000       0.81250000       0.06250000 </v>
   <v>       0.31250000       0.31250000       0.56250000 </v>
   <v>       0.81250000       0.31250000       0.56250000 </v>
   <v>       0.31250000       0.81250000       0.56250000 </v>
   <v>       0.81250000       0.81250000       0.56250000 </v>
  </varray>
 </structure>
 <calculation>
  <scstep>
   <time name="dav">    4.52    4.52</time>
   <time name="total">    4.72    4.73</time>
   <energy>
    <i name="alphaZ">    105.52440745 </i>
    <i name="ewald">  -7265.47623966 </i>
    <i name="hartreedc">   -361.70779052 </i>
    <i name="XCdc">   -597.75718610 </i>
    <i name="pawpsdc">   5639.92317535 </i>
    <i name="pawaedc">  -4513.95313856 </i>
    <i name="eentropy">     -0.00127815 </i>
    <i name="bandstr">    856.87659573 </i>
    <i name="atom">   6596.14994790 </i>
    <i name="e_fr_energy">    459.57849345 </i>
    <i name="e_wo_entrp">    459.57977160 </i>
    <i name="e_0_energy">    459.57913253 </i>
   </energy>
  </scstep>
  <scstep>
   <time name="dav">    5.21    5.21</time>
   <time name="total">    5.21    5.22</time>
   <energy>
    <i name="e_fr_energy">   -300.07487705 </i>
    <i name="e_wo_entrp">   -300.07487705 </i>
    <i name="e_0_energy">   -300.07487705 </i>
   </energy>
  </scstep>
  <scstep>
   <time name="dav">    5.22    5.23</time>
   <time name="total">    5.22    5.23</time>
   <energy>
    <i name="e_fr_energy">   -350.93632171 </i>
    <i name="e_wo_entrp">   -350.93632171 </i>
    <i name="e_0_energy">   -350.93632171 </i>
   </energy>
  </scstep>
  <scstep>
   <time name="dav">    5.21    5.22</time>
   <time name="total">    5.21    5.22</time>
   <energy>
    <i name="e_fr_energy">   -352.26658486 </i>
    <i name="e_wo_entrp">   -352.26658486 </i>
    <i name="e_0_energy">   -352.26658486 </i>
   </energy>
  </scstep>
  <scstep>
   <time name="dav">    5.13    5.14</time>
   <time name="total">    5.39    5.42</time>
   <energy>
    <i name="e_fr_energy">   -352.31303433 </i>
    <i name="e_wo_entrp">   -352.31303433 </i>
    <i name="e_0_energy">   -352.31303433 </i>
   </energy>
  </scstep>
  <scstep>
   <time name="dav">    5.15    5.15</time>
   <time name="total">    5.60    5.61</time>
   <energy>
    <i name="e_fr_energy">   -348.58464850 </i>
    <i name="e_wo_entrp">   -348.58464850 </i>
    <i name="e_0_energy">   -348.58464850 </i>
   </energy>
  </scstep>
  <scstep>
   <time name="dav">    5.01    5.01</time>
   <time name="total">    5.46    5.48</time>
   <energy>
    <i name="e_fr_energy">   -346.87202220 </i>
    <i name="e_wo_entrp">   -346.87202220 </i>
    <i name="e_0_energy">   -346.87202220 </i>
   </energy>
  </scstep>
  <scstep>
   <time name="dav">    5.14    5.14</time>
   <time name="total">    5.59    5.60</time>
   <energy>
    <i name="e_fr_energy">   -346.89833259 </i>
    <i name="e_wo_entrp">   -346.89833259 </i>
    <i name="e_0_energy">   -346.89833259 </i>
   </energy>
  </scstep>
  <scstep>
   <time name="dav">    5.29    5.29</time>
   <time name="total">    5.74    5.75</time>
   <energy>
    <i name="e_fr_energy">   -346.90503721 </i>
    <i name="e_wo_entrp">   -346.90503721 </i>
    <i name="e_0_energy">   -346.90503721 </i>
   </energy>
  </scstep>
  <scstep>
   <time name="dav">    4.91    4.92</time>
   <time name="total">    5.36    5.37</time>
   <energy>
    <i name="e_fr_energy">   -346.90708390 </i>
    <i name="e_wo_entrp">   -346.90708390 </i>
    <i name="e_0_energy">   -346.90708390 </i>
   </energy>
  </scstep>
  <scstep>
   <time name="dav">    5.13    5.13</time>
   <time name="total">    5.58    5.59</time>
   <energy>
    <i name="e_fr_energy">   -346.90706736 </i>
    <i name="e_wo_entrp">   -346.90706736 </i>
    <i name="e_0_energy">   -346.90706736 </i>
   </energy>
  </scstep>
  <scstep>
   <time name="dav">    5.17    5.18</time>
   <time name="total">    5.62    5.64</time>
   <energy>
    <i name="e_fr_energy">   -346.90708146 </i>
    <i name="e_wo_entrp">   -346.90708146 </i>
    <i name="e_0_energy">   -346.90708146 </i>
   </energy>
  </scstep>
  <scstep>
   <time name="dav">    5.06    5.06</time>
   <time name="total">    5.51    5.53</time>
   <energy>
    <i name="e_fr_energy">   -346.90708196 </i>
    <i name="e_wo_entrp">   -346.90708196 </i>
    <i name="e_0_energy">   -346.90708196 </i>
   </energy>
  </scstep>
  <scstep>
   <time name="dav">    5.27    5.27</time>
   <time name="total">    5.72    5.73</time>
   <energy>
    <i name="e_fr_energy">   -346.90708249 </i>
    <i name="e_wo_entrp">   -346.90708249 </i>
    <i name="e_0_energy">   -346.90708249 </i>
   </energy>
  </scstep>
  <scstep>
   <time name="dav">    4.50    4.50</time>
   <time name="total">    4.95    4.96</time>
   <energy>
    <i name="e_fr_energy">   -346.90708222 </i>
    <i name="e_wo_entrp">   -346.90708222 </i>
    <i name="e_0_energy">   -346.90708222 </i>
   </energy>
  </scstep>
  <scstep>
   <time name="dav">    3.54    3.55</time>
   <time name="total">    4.00    4.01</time>
   <energy>
    <i name="e_fr_energy">   -346.90708233 </i>
    <i name="e_wo_entrp">   -346.90708233 </i>
    <i name="e_0_energy">   -346.90708233 </i>
   </energy>
  </scstep>
  <scstep>
   <time name="dav">    3.50    3.53</time>
   <time name="total">    3.95    3.99</time>
   <energy>
    <i name="e_fr_energy">   -346.90708232 </i>
    <i name="e_wo_entrp">   -346.90708232 </i>
    <i name="e_0_energy">   -346.90708232 </i>
   </energy>
  </scstep>
  <scstep>
   <time name="dav">    3.48    3.48</time>
   <time name="total">    3.93    3.95</time>
   <energy>
    <i name="e_fr_energy">   -346.90708233 </i>
    <i name="e_wo_entrp">   -346.90708233 </i>
    <i name="e_0_energy">   -346.90708233 </i>
   </energy>
  </scstep>
  <scstep>
   <time name="dav">    3.46    3.47</time>
   <time name="total">    3.67    3.68</time>
   <energy>
    <i name="alphaZ">    105.52440745 </i>
    <i name="ewald">  -7265.47623966 </i>
    <i name="hartreedc">   -485.13844535 </i>
    <i name="XCdc">   -577.61231923 </i>
    <i name="pawpsdc">  27883.41820114 </i>
    <i name="pawaedc"> -26764.13612860 </i>
    <i name="eentropy">      0.00000000 </i>
    <i name="bandstr">    160.36349402 </i>
    <i name="atom">   6596.14994790 </i>
    <i name="e_fr_energy">   -346.90708233 </i>
    <i name="e_wo_entrp">   -346.90708233 </i>
    <i name="e_0_energy">   -346.90708233 </i>
   </energy>
  </scstep>
  <structure>
   <crystal>
    <varray name="basis" >
     <v>      10.93252578       0.00000000       0.00000000 </v>
     <v>       0.00000000      10.93252578       0.00000000 </v>
     <v>       0.00000000       0.00000000      10.93252578 </v>
    </varray>
    <i name="volume">   1306.65679237 </i>
    <varray name="rec_basis" >
     <v>       0.09147017       0.00000000       0.00000000 </v>
     <v>       0.00000000       0.09147017       0.00000000 </v>
     <v>       0.00000000       0.00000000       0.09147017 </v>
    </varray>
   </crystal>
   <varray name="positions" >
    <v>       0.44024411       0.43750000       0.43750000 </v>
    <v>       0.93750000       0.43750000       0.43750000 </v>
    <v>       0.43750000       0.93750000       0.43750000 </v>
    <v>       0.93750000       0.93750000       0.43750000 </v>
    <v>       0.43750000       0.43750000       0.93750000 </v>
    <v>       0.93750000       0.43750000       0.93750000 </v>
    <v>       0.43750000       0.93750000       0.93750000 </v>
    <v>       0.93750000       0.93750000       0.93750000 </v>
    <v>       0.43750000       0.18750000       0.18750000 </v>
    <v>       0.93750000       0.18750000       0.18750000 </v>
    <v>       0.43750000       0.68750000       0.18750000 </v>
    <v>       0.93750000       0.68750000       0.18750000 </v>
    <v>       0.43750000       0.18750000       0.68750000 </v>
    <v>       0.93750000       0.18750000       0.68750000 </v>
    <v>       0.43750000       0.68750000       0.68750000 </v>
    <v>       0.93750000       0.68750000       0.68750000 </v>
    <v>       0.18750000       0.43750000       0.18750000 </v>
    <v>       0.68750000       0.43750000       0.18475589 </v>
    <v>       0.18750000       0.93750000       0.18750000 </v>
    <v>       0.68750000       0.93750000       0.18750000 </v>
    <v>       0.18750000       0.43750000       0.68750000 </v>
    <v>       0.68750000       0.43750000       0.68750000 </v>
    <v>       0.18750000       0.93750000       0.68750000 </v>
    <v>       0.68750000       0.93750000       0.68750000 </v>
    <v>       0.18750000       0.18750000       0.43750000 </v>
    <v>       0.68750000       0.18750000       0.43750000 </v>
    <v>       0.18750000       0.68750000       0.43750000 </v>
    <v>       0.68750000       0.68750000       0.43750000 </v>
    <v>       0.18750000       0.18750000       0.93750000 </v>
    <v>       0.68750000       0.18750000       0.93750000 </v>
    <v>       0.18750000       0.68750000       0.93750000 </v>
    <v>       0.68750000       0.68750000       0.93750000 </v>
    <v>       0.06250000       0.06250000       0.06250000 </v>
    <v>       0.56250000       0.06250000       0.06250000 </v>
    <v>       0.06250000       0.56250000       0.06250000 </v>
    <v>       0.56250000       0.56250000       0.06250000 </v>
    <v>       0.06250000       0.06250000       0.56250000 </v>
    <v>       0.56250000       0.06250000       0.56250000 </v>
    <v>       0.06250000       0.56250000       0.56250000 </v>
    <v>       0.56250000       0.56250000       0.56250000 </v>
    <v>       0.06250000       0.31250000       0.31250000 </v>
    <v>       0.56250000       0.31250000       0.31250000 </v>
    <v>       0.06250000       0.81250000       0.31250000 </v>
    <v>       0.56250000       0.81250000       0.31250000 </v>
    <v>       0.06250000       0.31250000       0.81250000 </v>
    <v>       0.56250000       0.31250000       0.81250000 </v>
    <v>       0.06250000       0.81250000       0.81250000 </v>
    <v>       0.56250000       0.81250000       0.81250000 </v>
    <v>       0.31250000       0.06250000       0.31250000 </v>
    <v>       0.81250000       0.06250000       0.31250000 </v>
    <v>       0.31250000       0.56250000       0.31250000 </v>
    <v>       0.81250000       0.56250000       0.31250000 </v>
    <v>       0.31250000       0.06250000       0.81250000 </v>
    <v>       0.81250000       0.06250000       0.81250000 </v>
    <v>       0.31250000       0.56250000       0.81250000 </v>
    <v>       0.81250000       0.56250000       0.81250000 </v>
    <v>       0.31250000       0.31250000       0.06250000 </v>
    <v>       0.81250000       0.31250000       0.06250000 </v>
    <v>       0.31250000       0.81250000       0.06250000 </v>
    <v>       0.81250000       0.81250000       0.06250000 </v>
    <v>       0.31250000       0.31250000       0.56250000 </v>
    <v>       0.81250000       0.31250000       0.56250000 </v>
    <v>       0.31250000       0.81250000       0.56250000 </v>
    <v>       0.81250000       0.81250000       0.56250000 </v>
   </varray>
  </structure>
  <varray name="forces" >
   <v>      -0.38144301       0.00272641      -0.00583835 </v>
   <v>      -0.00501432      -0.00267429      -0.00564246 </v>
   <v>      -0.00054539       0.00023090      -0.00101333 </v>
   <v>       0.00168806      -0.00022608      -0.00103026 </v>
   <v>      -0.00437226       0.00277057      -0.00580189 </v>
   <v>       0.00551414      -0.00275147      -0.00579936 </v>
   <v>      -0.00970869       0.00023448      -0.00101803 </v>
   <v>      -0.00127035      -0.00022924      -0.00101930 </v>
   <v>      -0.01552481       0.00018710       0.01556661 </v>
   <v>      -0.00280470       0.00299067       0.01311529 </v>
   <v>      -0.01000849      -0.00009320       0.01021345 </v>
   <v>       0.00266155       0.00289409       0.01254346 </v>
   <v>      -0.01300137      -0.00290593       0.00265778 </v>
   <v>      -0.00022729      -0.00000260       0.00025881 </v>
   <v>      -0.01265470      -0.00300304      -0.00274940 </v>
   <v>       0.00020875       0.00000621      -0.00022523 </v>
   <v>       0.00564833      -0.00267020       0.00424301 </v>
   <v>       0.00562055      -0.00270820       0.38157237 </v>
   <v>       0.00102024      -0.00022530       0.00968341 </v>
   <v>       0.00102472      -0.00022882       0.00052819 </v>
   <v>       0.00565062       0.00269027      -0.00538499 </v>
   <v>       0.00580750       0.00276642       0.00513709 </v>
   <v>       0.00101909       0.00023064       0.00128454 </v>
   <v>       0.00100793       0.00023371      -0.00166889 </v>
   <v>       0.00587936       0.00370357      -0.00369916 </v>
   <v>       0.00842036      -0.00012023      -0.00846773 </v>
   <v>       0.00541904      -0.00369432       0.00165120 </v>
   <v>       0.00312853       0.00014015      -0.00288095 </v>
   <v>       0.00124789      -0.00001484      -0.00125040 </v>
   <v>       0.00378062      -0.00383832      -0.00603094 </v>
   <v>       0.00078582       0.00001663      -0.00079246 </v>
   <v>      -0.00175143       0.00384760      -0.00557124 </v>
   <v>      -0.00121741       0.00143927      -0.00546338 </v>
   <v>       0.00501088       0.00160784       0.00216390 </v>
   <v>      -0.00030712       0.00186419       0.00207590 </v>
   <v>      -0.06755924       0.06730727      -0.09488104 </v>
   <v>      -0.00013895       0.00135546       0.00119655 </v>
   <v>      -0.00211417       0.00152182       0.00059866 </v>
   <v>      -0.00087809       0.00156511       0.00028840 </v>
   <v>       0.09488890       0.06702958       0.06639609 </v>
   <v>       0.00061328       0.00033785       0.00052069 </v>
   <v>       0.15678140      -0.00530098      -0.15915025 </v>
   <v>       0.00129570       0.00007460      -0.00677961 </v>
   <v>      -0.00022926      -0.00003626       0.00022079 </v>
   <v>       0.00125808       0.00003616      -0.00126246 </v>
   <v>      -0.00057349      -0.00030631      -0.00064750 </v>
   <v>       0.00020932      -0.00001016      -0.00022073 </v>
   <v>       0.00693029      -0.00004716      -0.00134602 </v>
   <v>      -0.00210524      -0.00156717      -0.00487918 </v>
   <v>      -0.00057956      -0.00153142       0.00215395 </v>
   <v>       0.09218184      -0.06221901       0.06241768 </v>
   <v>      -0.06122720      -0.06185487      -0.09217579 </v>
   <v>       0.00538449      -0.00142264       0.00121474 </v>
   <v>      -0.00123528      -0.00138515       0.00008169 </v>
   <v>      -0.00207201      -0.00195467       0.00022663 </v>
   <v>      -0.00024528      -0.00160959       0.00091490 </v>
   <v>      -0.00051129       0.00003949       0.00058291 </v>
   <v>       0.06677314      -0.06544054      -0.09642395 </v>
   <v>       0.00682754      -0.00001968      -0.00688292 </v>
   <v>       0.00067368      -0.00017938       0.00072820 </v>
   <v>       0.09368931       0.06026441      -0.06157272 </v>
   <v>       0.00063071      -0.00001181      -0.00063055 </v>
   <v>      -0.00067923       0.00013388      -0.00071402 </v>
   <v>       0.00131798       0.00003655      -0.00132241 </v>
  </varray>
  <varray name="stress" >
   <v>       0.00108886      -0.33494418       0.00026869 </v>
   <v>      -0.33494415       0.02091720       0.33472438 </v>
   <v>       0.00026867       0.33472440       0.00109645 </v>
  </varray>
  <energy>
   <i name="e_fr_energy">   -346.90708233 </i>
   <i name="e_wo_entrp">   -346.90708233 </i>
   <i name="e_0_energy">      0.00000000 </i>
  </energy>
  <time name="totalsc">  106.87  107.19</time>
  <eigenvalues>
   <array>
    <dimension dim="1">band</dimension>
    <dimension dim="2">kpoint</dimension>
    <dimension dim="3">spin</dimension>
    <field>eigene</field>
    <field>occ</field>
    <set>
     <set comment="spin 1">
      <set comment="kpoint 1">
       <r>   -5.9931    1.0000 </r>
       <r>   -5.4657    1.0000 </r>
       <r>   -5.4647    1.0000 </r>
       <r>   -5.4638    1.0000 </r>
       <r>   -4.9664    1.0000 </r>
       <r>   -4.9655    1.0000 </r>
       <r>   -4.9646    1.0000 </r>
       <r>   -4.5323    1.0000 </r>
       <r>   -4.4338    1.0000 </r>
       <r>   -4.4324    1.0000 </r>
       <r>   -4.4309    1.0000 </r>
       <r>   -4.0244    1.0000 </r>
       <r>   -4.0187    1.0000 </r>
       <r>   -4.0169    1.0000 </r>
       <r>   -4.0159    1.0000 </r>
       <r>   -4.0141    1.0000 </r>
       <r>   -4.0088    1.0000 </r>
       <r>   -3.8286    1.0000 </r>
       <r>   -3.8243    1.0000 </r>
       <r>   -3.8200    1.0000 </r>
       <r>   -3.3314    1.0000 </r>
       <r>   -3.3283    1.0000 </r>
       <r>   -3.3254    1.0000 </r>
       <r>   -2.9641    1.0000 </r>
       <r>   -2.9591    1.0000 </r>
       <r>   -2.9545    1.0000 </r>
       <r>   -2.7988    1.0000 </r>
       <r>   -2.7937    1.0000 </r>
       <r>   -2.7910    1.0000 </r>
       <r>   -2.7907    1.0000 </r>
       <r>   -2.7881    1.0000 </r>
       <r>   -2.7826    1.0000 </r>
       <r>   -1.2587    1.0000 </r>
       <r>   -1.2521    1.0000 </r>
       <r>   -1.2489    1.0000 </r>
       <r>   -1.2484    1.0000 </r>
       <r>   -1.2456    1.0000 </r>
       <r>   -1.2401    1.0000 </r>
       <r>   -1.1560    1.0000 </r>
       <r>   -1.1510    1.0000 </r>
       <r>   -1.1458    1.0000 </r>
       <r>   -1.0379    1.0000 </r>
       <r>   -1.0328    1.0000 </r>
       <r>   -1.0271    1.0000 </r>
       <r>   -0.9534    1.0000 </r>
       <r>   -0.9469    1.0000 </r>
       <r>   -0.9400    1.0000 </r>
       <r>   -0.2446    1.0000 </r>
       <r>   -0.1693    1.0000 </r>
       <r>   -0.1642    1.0000 </r>
       <r>   -0.1614    1.0000 </r>
       <r>   -0.1589    1.0000 </r>
       <r>   -0.1562    1.0000 </r>
       <r>   -0.1506    1.0000 </r>
       <r>    0.7085    1.0000 </r>
       <r>    0.7143    1.0000 </r>
       <r>    0.7200    1.0000 </r>
       <r>    1.0429    1.0000 </r>
       <r>    1.0471    1.0000 </r>
       <r>    1.0513    1.0000 </r>
       <r>    1.6518    1.0000 </r>
       <r>    1.6556    1.0000 </r>
       <r>    1.6567    1.0000 </r>
       <r>    1.6574    1.0000 </r>
       <r>    1.6584    1.0000 </r>
       <r>    1.6620    1.0000 </r>
       <r>    1.7128    1.0000 </r>
       <r>    1.7160    1.0000 </r>
       <r>    1.7193    1.0000 </r>
       <r>    2.2650    1.0000 </r>
       <r>    2.2677    1.0000 </r>
       <r>    2.2705    1.0000 </r>
       <r>    2.3649    1.0000 </r>
       <r>    2.3670    1.0000 </r>
       <r>    2.3703    1.0000 </r>
       <r>    2.3715    1.0000 </r>
       <r>    2.3747    1.0000 </r>
       <r>    2.3768    1.0000 </r>
       <r>    2.4207    1.0000 </r>
       <r>    2.4250    1.0000 </r>
       <r>    2.4291    1.0000 </r>
       <r>    2.7302    1.0000 </r>
       <r>    2.7324    1.0000 </r>
       <r>    2.7343    1.0000 </r>
       <r>    2.7356    1.0000 </r>
       <r>    2.7375    1.0000 </r>
       <r>    2.7396    1.0000 </r>
       <r>    2.9972    1.0000 </r>
       <r>    2.9994    1.0000 </r>
       <r>    3.0006    1.0000 </r>
       <r>    3.0097    1.0000 </r>
       <r>    3.0142    1.0000 </r>
       <r>    3.0172    1.0000 </r>
       <r>    3.3597    1.0000 </r>
       <r>    3.3621    1.0000 </r>
       <r>    3.3633    1.0000 </r>
       <r>    3.3802    1.0000 </r>
       <r>    3.3842    1.0000 </r>
       <r>    3.3893    1.0000 </r>
       <r>    3.4636    1.0000 </r>
       <r>    3.4667    1.0000 </r>
       <r>    3.4697    1.0000 </r>
       <r>    3.7339    1.0000 </r>
       <r>    3.7398    1.0000 </r>
       <r>    3.7402    1.0000 </r>
       <r>    3.7423    1.0000 </r>
       <r>    3.7425    1.0000 </r>
       <r>    3.7485    1.0000 </r>
       <r>    3.7772    1.0000 </r>
       <r>    3.7809    1.0000 </r>
       <r>    3.7844    1.0000 </r>
       <r>    4.0404    1.0000 </r>
       <r>    4.0958    1.0000 </r>
       <r>    4.0983    1.0000 </r>
       <r>    4.1000    1.0000 </r>
       <r>    4.3374    1.0000 </r>
       <r>    4.3409    1.0000 </r>
       <r>    4.3446    1.0000 </r>
       <r>    4.4002    1.0000 </r>
       <r>    4.4056    1.0000 </r>
       <r>    4.4118    1.0000 </r>
       <r>    4.5588    1.0000 </r>
       <r>    4.5671    1.0000 </r>
       <r>    4.8652    1.0000 </r>
       <r>    4.8700    1.0000 </r>
       <r>    4.8750    1.0000 </r>
       <r>    5.3451    1.0000 </r>
       <r>    5.3544    1.0000 </r>
       <r>    6.5603    0.0000 </r>
       <r>    6.5633    0.0000 </r>
       <r>    6.5666    0.0000 </r>
       <r>    6.9991    0.0000 </r>
       <r>    7.0045    0.0000 </r>
       <r>    7.0097    0.0000 </r>
       <r>    7.2337    0.0000 </r>
       <r>    7.4859    0.0000 </r>
       <r>    7.4908    0.0000 </r>
       <r>    7.4954    0.0000 </r>
       <r>    7.6152    0.0000 </r>
       <r>    7.6197    0.0000 </r>
       <r>    7.6239    0.0000 </r>
       <r>    7.7760    0.0000 </r>
       <r>    7.7799    0.0000 </r>
       <r>    7.7832    0.0000 </r>
       <r>    7.7994    0.0000 </r>
       <r>    7.8012    0.0000 </r>
       <r>    7.8034    0.0000 </r>
       <r>    8.0241    0.0000 </r>
       <r>    8.0274    0.0000 </r>
       <r>    8.0296    0.0000 </r>
       <r>    8.0317    0.0000 </r>
       <r>    8.0336    0.0000 </r>
       <r>    8.0367    0.0000 </r>
       <r>    8.0813    0.0000 </r>
       <r>    8.2914    0.0000 </r>
       <r>    8.2950    0.0000 </r>
       <r>    8.2985    0.0000 </r>
       <r>    8.4953    0.0000 </r>
       <r>    8.4982    0.0000 </r>
       <r>    8.5030    0.0000 </r>
       <r>    8.5050    0.0000 </r>
       <r>    8.5077    0.0000 </r>
       <r>    8.5196    0.0000 </r>
       <r>    8.5460    0.0000 </r>
      </set>
      <set comment="kpoint 2">
       <r>   -5.9931    1.0000 </r>
       <r>   -5.4674    1.0000 </r>
       <r>   -5.4648    1.0000 </r>
       <r>   -5.4624    1.0000 </r>
       <r>   -4.9681    1.0000 </r>
       <r>   -4.9653    1.0000 </r>
       <r>   -4.9631    1.0000 </r>
       <r>   -4.5312    1.0000 </r>
       <r>   -4.4345    1.0000 </r>
       <r>   -4.4321    1.0000 </r>
       <r>   -4.4297    1.0000 </r>
       <r>   -4.0236    1.0000 </r>
       <r>   -4.0215    1.0000 </r>
       <r>   -4.0159    1.0000 </r>
       <r>   -4.0147    1.0000 </r>
       <r>   -4.0144    1.0000 </r>
       <r>   -4.0114    1.0000 </r>
       <r>   -3.8288    1.0000 </r>
       <r>   -3.8244    1.0000 </r>
       <r>   -3.8217    1.0000 </r>
       <r>   -3.3299    1.0000 </r>
       <r>   -3.3263    1.0000 </r>
       <r>   -3.3235    1.0000 </r>
       <r>   -2.9632    1.0000 </r>
       <r>   -2.9593    1.0000 </r>
       <r>   -2.9562    1.0000 </r>
       <r>   -2.7983    1.0000 </r>
       <r>   -2.7952    1.0000 </r>
       <r>   -2.7905    1.0000 </r>
       <r>   -2.7890    1.0000 </r>
       <r>   -2.7880    1.0000 </r>
       <r>   -2.7858    1.0000 </r>
       <r>   -1.2569    1.0000 </r>
       <r>   -1.2518    1.0000 </r>
       <r>   -1.2483    1.0000 </r>
       <r>   -1.2465    1.0000 </r>
       <r>   -1.2447    1.0000 </r>
       <r>   -1.2423    1.0000 </r>
       <r>   -1.1532    1.0000 </r>
       <r>   -1.1508    1.0000 </r>
       <r>   -1.1468    1.0000 </r>
       <r>   -1.0337    1.0000 </r>
       <r>   -1.0324    1.0000 </r>
       <r>   -1.0268    1.0000 </r>
       <r>   -0.9584    1.0000 </r>
       <r>   -0.9474    1.0000 </r>
       <r>   -0.9463    1.0000 </r>
       <r>   -0.2481    1.0000 </r>
       <r>   -0.1645    1.0000 </r>
       <r>   -0.1640    1.0000 </r>
       <r>   -0.1600    1.0000 </r>
       <r>   -0.1580    1.0000 </r>
       <r>   -0.1545    1.0000 </r>
       <r>   -0.1511    1.0000 </r>
       <r>    0.7064    1.0000 </r>
       <r>    0.7132    1.0000 </r>
       <r>    0.7165    1.0000 </r>
       <r>    1.0444    1.0000 </r>
       <r>    1.0471    1.0000 </r>
       <r>    1.0500    1.0000 </r>
       <r>    1.6534    1.0000 </r>
       <r>    1.6548    1.0000 </r>
       <r>    1.6565    1.0000 </r>
       <r>    1.6582    1.0000 </r>
       <r>    1.6592    1.0000 </r>
       <r>    1.6605    1.0000 </r>
       <r>    1.7139    1.0000 </r>
       <r>    1.7176    1.0000 </r>
       <r>    1.7197    1.0000 </r>
       <r>    2.2644    1.0000 </r>
       <r>    2.2654    1.0000 </r>
       <r>    2.2678    1.0000 </r>
       <r>    2.3674    1.0000 </r>
       <r>    2.3692    1.0000 </r>
       <r>    2.3704    1.0000 </r>
       <r>    2.3732    1.0000 </r>
       <r>    2.3757    1.0000 </r>
       <r>    2.3767    1.0000 </r>
       <r>    2.4242    1.0000 </r>
       <r>    2.4268    1.0000 </r>
       <r>    2.4303    1.0000 </r>
       <r>    2.7299    1.0000 </r>
       <r>    2.7320    1.0000 </r>
       <r>    2.7348    1.0000 </r>
       <r>    2.7361    1.0000 </r>
       <r>    2.7370    1.0000 </r>
       <r>    2.7389    1.0000 </r>
       <r>    2.9985    1.0000 </r>
       <r>    2.9997    1.0000 </r>
       <r>    3.0030    1.0000 </r>
       <r>    3.0125    1.0000 </r>
       <r>    3.0144    1.0000 </r>
       <r>    3.0173    1.0000 </r>
       <r>    3.3568    1.0000 </r>
       <r>    3.3604    1.0000 </r>
       <r>    3.3630    1.0000 </r>
       <r>    3.3792    1.0000 </r>
       <r>    3.3803    1.0000 </r>
       <r>    3.3846    1.0000 </r>
       <r>    3.4656    1.0000 </r>
       <r>    3.4669    1.0000 </r>
       <r>    3.4708    1.0000 </r>
       <r>    3.7316    1.0000 </r>
       <r>    3.7347    1.0000 </r>
       <r>    3.7398    1.0000 </r>
       <r>    3.7410    1.0000 </r>
       <r>    3.7421    1.0000 </r>
       <r>    3.7428    1.0000 </r>
       <r>    3.7795    1.0000 </r>
       <r>    3.7808    1.0000 </r>
       <r>    3.7856    1.0000 </r>
       <r>    4.0365    1.0000 </r>
       <r>    4.0981    1.0000 </r>
       <r>    4.0988    1.0000 </r>
       <r>    4.1038    1.0000 </r>
       <r>    4.3404    1.0000 </r>
       <r>    4.3416    1.0000 </r>
       <r>    4.3466    1.0000 </r>
       <r>    4.3954    1.0000 </r>
       <r>    4.4034    1.0000 </r>
       <r>    4.4051    1.0000 </r>
       <r>    4.5617    1.0000 </r>
       <r>    4.5664    1.0000 </r>
       <r>    4.8695    1.0000 </r>
       <r>    4.8707    1.0000 </r>
       <r>    4.8778    1.0000 </r>
       <r>    5.3493    1.0000 </r>
       <r>    5.3547    1.0000 </r>
       <r>    6.5617    0.0000 </r>
       <r>    6.5654    0.0000 </r>
       <r>    6.5679    0.0000 </r>
       <r>    7.0014    0.0000 </r>
       <r>    7.0042    0.0000 </r>
       <r>    7.0100    0.0000 </r>
       <r>    7.2352    0.0000 </r>
       <r>    7.4888    0.0000 </r>
       <r>    7.4921    0.0000 </r>
       <r>    7.4959    0.0000 </r>
       <r>    7.6152    0.0000 </r>
       <r>    7.6177    0.0000 </r>
       <r>    7.6216    0.0000 </r>
       <r>    7.7777    0.0000 </r>
       <r>    7.7804    0.0000 </r>
       <r>    7.7825    0.0000 </r>
       <r>    7.7988    0.0000 </r>
       <r>    7.8009    0.0000 </r>
       <r>    7.8062    0.0000 </r>
       <r>    8.0230    0.0000 </r>
       <r>    8.0252    0.0000 </r>
       <r>    8.0287    0.0000 </r>
       <r>    8.0305    0.0000 </r>
       <r>    8.0310    0.0000 </r>
       <r>    8.0344    0.0000 </r>
       <r>    8.0837    0.0000 </r>
       <r>    8.2929    0.0000 </r>
       <r>    8.2945    0.0000 </r>
       <r>    8.2982    0.0000 </r>
       <r>    8.4946    0.0000 </r>
       <r>    8.4988    0.0000 </r>
       <r>    8.5021    0.0000 </r>
       <r>    8.5033    0.0000 </r>
       <r>    8.5071    0.0000 </r>
       <r>    8.5222    0.0000 </r>
       <r>    8.5400    0.0000 </r>
      </set>
      <set comment="kpoint 3">
       <r>   -5.9931    1.0000 </r>
       <r>   -5.4681    1.0000 </r>
       <r>   -5.4647    1.0000 </r>
       <r>   -5.4614    1.0000 </r>
       <r>   -4.9689    1.0000 </r>
       <r>   -4.9655    1.0000 </r>
       <r>   -4.9621    1.0000 </r>
       <r>   -4.5322    1.0000 </r>
       <r>   -4.4355    1.0000 </r>
       <r>   -4.4325    1.0000 </r>
       <r>   -4.4293    1.0000 </r>
       <r>   -4.0237    1.0000 </r>
       <r>   -4.0195    1.0000 </r>
       <r>   -4.0164    1.0000 </r>
       <r>   -4.0163    1.0000 </r>
       <r>   -4.0133    1.0000 </r>
       <r>   -4.0095    1.0000 </r>
       <r>   -3.8285    1.0000 </r>
       <r>   -3.8244    1.0000 </r>
       <r>   -3.8199    1.0000 </r>
       <r>   -3.3320    1.0000 </r>
       <r>   -3.3284    1.0000 </r>
       <r>   -3.3248    1.0000 </r>
       <r>   -2.9641    1.0000 </r>
       <r>   -2.9591    1.0000 </r>
       <r>   -2.9544    1.0000 </r>
       <r>   -2.7978    1.0000 </r>
       <r>   -2.7937    1.0000 </r>
       <r>   -2.7910    1.0000 </r>
       <r>   -2.7909    1.0000 </r>
       <r>   -2.7880    1.0000 </r>
       <r>   -2.7837    1.0000 </r>
       <r>   -1.2576    1.0000 </r>
       <r>   -1.2524    1.0000 </r>
       <r>   -1.2490    1.0000 </r>
       <r>   -1.2483    1.0000 </r>
       <r>   -1.2454    1.0000 </r>
       <r>   -1.2407    1.0000 </r>
       <r>   -1.1562    1.0000 </r>
       <r>   -1.1511    1.0000 </r>
       <r>   -1.1460    1.0000 </r>
       <r>   -1.0379    1.0000 </r>
       <r>   -1.0328    1.0000 </r>
       <r>   -1.0272    1.0000 </r>
       <r>   -0.9538    1.0000 </r>
       <r>   -0.9468    1.0000 </r>
       <r>   -0.9394    1.0000 </r>
       <r>   -0.2446    1.0000 </r>
       <r>   -0.1691    1.0000 </r>
       <r>   -0.1648    1.0000 </r>
       <r>   -0.1606    1.0000 </r>
       <r>   -0.1598    1.0000 </r>
       <r>   -0.1552    1.0000 </r>
       <r>   -0.1512    1.0000 </r>
       <r>    0.7095    1.0000 </r>
       <r>    0.7143    1.0000 </r>
       <r>    0.7190    1.0000 </r>
       <r>    1.0432    1.0000 </r>
       <r>    1.0471    1.0000 </r>
       <r>    1.0510    1.0000 </r>
       <r>    1.6538    1.0000 </r>
       <r>    1.6547    1.0000 </r>
       <r>    1.6555    1.0000 </r>
       <r>    1.6585    1.0000 </r>
       <r>    1.6591    1.0000 </r>
       <r>    1.6602    1.0000 </r>
       <r>    1.7128    1.0000 </r>
       <r>    1.7160    1.0000 </r>
       <r>    1.7193    1.0000 </r>
       <r>    2.2650    1.0000 </r>
       <r>    2.2677    1.0000 </r>
       <r>    2.2705    1.0000 </r>
       <r>    2.3654    1.0000 </r>
       <r>    2.3668    1.0000 </r>
       <r>    2.3701    1.0000 </r>
       <r>    2.3718    1.0000 </r>
       <r>    2.3747    1.0000 </r>
       <r>    2.3762    1.0000 </r>
       <r>    2.4219    1.0000 </r>
       <r>    2.4252    1.0000 </r>
       <r>    2.4280    1.0000 </r>
       <r>    2.7287    1.0000 </r>
       <r>    2.7336    1.0000 </r>
       <r>    2.7345    1.0000 </r>
       <r>    2.7354    1.0000 </r>
       <r>    2.7363    1.0000 </r>
       <r>    2.7411    1.0000 </r>
       <r>    2.9974    1.0000 </r>
       <r>    2.9990    1.0000 </r>
       <r>    3.0008    1.0000 </r>
       <r>    3.0097    1.0000 </r>
       <r>    3.0140    1.0000 </r>
       <r>    3.0174    1.0000 </r>
       <r>    3.3576    1.0000 </r>
       <r>    3.3620    1.0000 </r>
       <r>    3.3655    1.0000 </r>
       <r>    3.3801    1.0000 </r>
       <r>    3.3844    1.0000 </r>
       <r>    3.3892    1.0000 </r>
       <r>    3.4632    1.0000 </r>
       <r>    3.4667    1.0000 </r>
       <r>    3.4701    1.0000 </r>
       <r>    3.7333    1.0000 </r>
       <r>    3.7381    1.0000 </r>
       <r>    3.7409    1.0000 </r>
       <r>    3.7415    1.0000 </r>
       <r>    3.7444    1.0000 </r>
       <r>    3.7495    1.0000 </r>
       <r>    3.7767    1.0000 </r>
       <r>    3.7807    1.0000 </r>
       <r>    3.7846    1.0000 </r>
       <r>    4.0404    1.0000 </r>
       <r>    4.0958    1.0000 </r>
       <r>    4.0983    1.0000 </r>
       <r>    4.1000    1.0000 </r>
       <r>    4.3371    1.0000 </r>
       <r>    4.3409    1.0000 </r>
       <r>    4.3449    1.0000 </r>
       <r>    4.4007    1.0000 </r>
       <r>    4.4056    1.0000 </r>
       <r>    4.4114    1.0000 </r>
       <r>    4.5588    1.0000 </r>
       <r>    4.5670    1.0000 </r>
       <r>    4.8649    1.0000 </r>
       <r>    4.8700    1.0000 </r>
       <r>    4.8753    1.0000 </r>
       <r>    5.3451    1.0000 </r>
       <r>    5.3544    1.0000 </r>
       <r>    6.5603    0.0000 </r>
       <r>    6.5633    0.0000 </r>
       <r>    6.5666    0.0000 </r>
       <r>    7.0005    0.0000 </r>
       <r>    7.0045    0.0000 </r>
       <r>    7.0083    0.0000 </r>
       <r>    7.2337    0.0000 </r>
       <r>    7.4872    0.0000 </r>
       <r>    7.4907    0.0000 </r>
       <r>    7.4942    0.0000 </r>
       <r>    7.6151    0.0000 </r>
       <r>    7.6197    0.0000 </r>
       <r>    7.6238    0.0000 </r>
       <r>    7.7789    0.0000 </r>
       <r>    7.7796    0.0000 </r>
       <r>    7.7809    0.0000 </r>
       <r>    7.7993    0.0000 </r>
       <r>    7.8011    0.0000 </r>
       <r>    7.8032    0.0000 </r>
       <r>    8.0233    0.0000 </r>
       <r>    8.0271    0.0000 </r>
       <r>    8.0292    0.0000 </r>
       <r>    8.0318    0.0000 </r>
       <r>    8.0340    0.0000 </r>
       <r>    8.0374    0.0000 </r>
       <r>    8.0815    0.0000 </r>
       <r>    8.2923    0.0000 </r>
       <r>    8.2949    0.0000 </r>
       <r>    8.2976    0.0000 </r>
       <r>    8.4922    0.0000 </r>
       <r>    8.4993    0.0000 </r>
       <r>    8.5007    0.0000 </r>
       <r>    8.5045    0.0000 </r>
       <r>    8.5116    0.0000 </r>
       <r>    8.5179    0.0000 </r>
       <r>    8.5409    0.0000 </r>
      </set>
      <set comment="kpoint 4">
       <r>   -5.9932    1.0000 </r>
       <r>   -5.4670    1.0000 </r>
       <r>   -5.4647    1.0000 </r>
       <r>   -5.4622    1.0000 </r>
       <r>   -4.9679    1.0000 </r>
       <r>   -4.9657    1.0000 </r>
       <r>   -4.9630    1.0000 </r>
       <r>   -4.5332    1.0000 </r>
       <r>   -4.4352    1.0000 </r>
       <r>   -4.4327    1.0000 </r>
       <r>   -4.4304    1.0000 </r>
       <r>   -4.0215    1.0000 </r>
       <r>   -4.0184    1.0000 </r>
       <r>   -4.0181    1.0000 </r>
       <r>   -4.0168    1.0000 </r>
       <r>   -4.0116    1.0000 </r>
       <r>   -4.0096    1.0000 </r>
       <r>   -3.8270    1.0000 </r>
       <r>   -3.8243    1.0000 </r>
       <r>   -3.8196    1.0000 </r>
       <r>   -3.3334    1.0000 </r>
       <r>   -3.3303    1.0000 </r>
       <r>   -3.3267    1.0000 </r>
       <r>   -2.9621    1.0000 </r>
       <r>   -2.9590    1.0000 </r>
       <r>   -2.9554    1.0000 </r>
       <r>   -2.7959    1.0000 </r>
       <r>   -2.7938    1.0000 </r>
       <r>   -2.7928    1.0000 </r>
       <r>   -2.7912    1.0000 </r>
       <r>   -2.7865    1.0000 </r>
       <r>   -2.7831    1.0000 </r>
       <r>   -1.2560    1.0000 </r>
       <r>   -1.2532    1.0000 </r>
       <r>   -1.2510    1.0000 </r>
       <r>   -1.2490    1.0000 </r>
       <r>   -1.2457    1.0000 </r>
       <r>   -1.2413    1.0000 </r>
       <r>   -1.1551    1.0000 </r>
       <r>   -1.1518    1.0000 </r>
       <r>   -1.1487    1.0000 </r>
       <r>   -1.0380    1.0000 </r>
       <r>   -1.0329    1.0000 </r>
       <r>   -1.0319    1.0000 </r>
       <r>   -0.9472    1.0000 </r>
       <r>   -0.9462    1.0000 </r>
       <r>   -0.9344    1.0000 </r>
       <r>   -0.2410    1.0000 </r>
       <r>   -0.1688    1.0000 </r>
       <r>   -0.1657    1.0000 </r>
       <r>   -0.1622    1.0000 </r>
       <r>   -0.1603    1.0000 </r>
       <r>   -0.1563    1.0000 </r>
       <r>   -0.1557    1.0000 </r>
       <r>    0.7121    1.0000 </r>
       <r>    0.7154    1.0000 </r>
       <r>    0.7223    1.0000 </r>
       <r>    1.0442    1.0000 </r>
       <r>    1.0472    1.0000 </r>
       <r>    1.0497    1.0000 </r>
       <r>    1.6534    1.0000 </r>
       <r>    1.6548    1.0000 </r>
       <r>    1.6560    1.0000 </r>
       <r>    1.6575    1.0000 </r>
       <r>    1.6591    1.0000 </r>
       <r>    1.6605    1.0000 </r>
       <r>    1.7123    1.0000 </r>
       <r>    1.7144    1.0000 </r>
       <r>    1.7181    1.0000 </r>
       <r>    2.2676    1.0000 </r>
       <r>    2.2701    1.0000 </r>
       <r>    2.2710    1.0000 </r>
       <r>    2.3648    1.0000 </r>
       <r>    2.3653    1.0000 </r>
       <r>    2.3687    1.0000 </r>
       <r>    2.3715    1.0000 </r>
       <r>    2.3728    1.0000 </r>
       <r>    2.3746    1.0000 </r>
       <r>    2.4200    1.0000 </r>
       <r>    2.4231    1.0000 </r>
       <r>    2.4254    1.0000 </r>
       <r>    2.7311    1.0000 </r>
       <r>    2.7330    1.0000 </r>
       <r>    2.7338    1.0000 </r>
       <r>    2.7351    1.0000 </r>
       <r>    2.7378    1.0000 </r>
       <r>    2.7399    1.0000 </r>
       <r>    2.9954    1.0000 </r>
       <r>    2.9987    1.0000 </r>
       <r>    3.0002    1.0000 </r>
       <r>    3.0097    1.0000 </r>
       <r>    3.0126    1.0000 </r>
       <r>    3.0149    1.0000 </r>
       <r>    3.3611    1.0000 </r>
       <r>    3.3635    1.0000 </r>
       <r>    3.3667    1.0000 </r>
       <r>    3.3843    1.0000 </r>
       <r>    3.3888    1.0000 </r>
       <r>    3.3891    1.0000 </r>
       <r>    3.4624    1.0000 </r>
       <r>    3.4663    1.0000 </r>
       <r>    3.4681    1.0000 </r>
       <r>    3.7395    1.0000 </r>
       <r>    3.7405    1.0000 </r>
       <r>    3.7416    1.0000 </r>
       <r>    3.7430    1.0000 </r>
       <r>    3.7478    1.0000 </r>
       <r>    3.7505    1.0000 </r>
       <r>    3.7758    1.0000 </r>
       <r>    3.7803    1.0000 </r>
       <r>    3.7824    1.0000 </r>
       <r>    4.0442    1.0000 </r>
       <r>    4.0920    1.0000 </r>
       <r>    4.0969    1.0000 </r>
       <r>    4.0986    1.0000 </r>
       <r>    4.3354    1.0000 </r>
       <r>    4.3404    1.0000 </r>
       <r>    4.3416    1.0000 </r>
       <r>    4.4062    1.0000 </r>
       <r>    4.4080    1.0000 </r>
       <r>    4.4171    1.0000 </r>
       <r>    4.5593    1.0000 </r>
       <r>    4.5641    1.0000 </r>
       <r>    4.8624    1.0000 </r>
       <r>    4.8692    1.0000 </r>
       <r>    4.8707    1.0000 </r>
       <r>    5.3448    1.0000 </r>
       <r>    5.3501    1.0000 </r>
       <r>    6.5586    0.0000 </r>
       <r>    6.5616    0.0000 </r>
       <r>    6.5652    0.0000 </r>
       <r>    6.9988    0.0000 </r>
       <r>    7.0048    0.0000 </r>
       <r>    7.0076    0.0000 </r>
       <r>    7.2323    0.0000 </r>
       <r>    7.4854    0.0000 </r>
       <r>    7.4894    0.0000 </r>
       <r>    7.4927    0.0000 </r>
       <r>    7.6170    0.0000 </r>
       <r>    7.6217    0.0000 </r>
       <r>    7.6239    0.0000 </r>
       <r>    7.7768    0.0000 </r>
       <r>    7.7788    0.0000 </r>
       <r>    7.7821    0.0000 </r>
       <r>    7.7964    0.0000 </r>
       <r>    7.8019    0.0000 </r>
       <r>    7.8035    0.0000 </r>
       <r>    8.0263    0.0000 </r>
       <r>    8.0302    0.0000 </r>
       <r>    8.0307    0.0000 </r>
       <r>    8.0324    0.0000 </r>
       <r>    8.0359    0.0000 </r>
       <r>    8.0378    0.0000 </r>
       <r>    8.0793    0.0000 </r>
       <r>    8.2916    0.0000 </r>
       <r>    8.2955    0.0000 </r>
       <r>    8.2972    0.0000 </r>
       <r>    8.4946    0.0000 </r>
       <r>    8.5007    0.0000 </r>
       <r>    8.5026    0.0000 </r>
       <r>    8.5048    0.0000 </r>
       <r>    8.5074    0.0000 </r>
       <r>    8.5144    0.0000 </r>
       <r>    8.5414    0.0000 </r>
      </set>
     </set>
    </set>
   </array>
  </eigenvalues>
  <separator name="orbital magnetization" >
   <v name="MAGDIPOLOUT">      0.00000000      0.00000000      0.00000000</v>
  </separator>
  <dos>
   <i name="efermi">      5.59785684 </i>
   <total>
    <array>
     <dimension dim="1">gridpoints</dimension>
     <dimension dim="2">spin</dimension>
     <field>energy</field>
     <field>total</field>
     <field>integrated</field>
     <set>
      <set comment="spin 1">
       <r>    -6.7202     0.0000     0.0000 </r>
       <r>    -6.6669     0.0000     0.0000 </r>
       <r>    -6.6135     0.0000     0.0000 </r>
       <r>    -6.5602     0.0000     0.0000 </r>
       <r>    -6.5069     0.0000     0.0000 </r>
       <r>    -6.4536     0.0000     0.0000 </r>
       <r>    -6.4003     0.0000     0.0000 </r>
       <r>    -6.3470     0.0000     0.0000 </r>
       <r>    -6.2937     0.0000     0.0000 </r>
       <r>    -6.2404     0.0000     0.0000 </r>
       <r>    -6.1871     0.0000     0.0000 </r>
       <r>    -6.1337     0.0013     0.0001 </r>
       <r>    -6.0804     0.2527     0.0135 </r>
       <r>    -6.0271     6.0559     0.3364 </r>
       <r>    -5.9738    20.2381     1.4153 </r>
       <r>    -5.9205    10.2189     1.9601 </r>
       <r>    -5.8672     0.7423     1.9996 </r>
       <r>    -5.8139     0.0069     2.0000 </r>
       <r>    -5.7606     0.0000     2.0000 </r>
       <r>    -5.7073     0.0000     2.0000 </r>
       <r>    -5.6540     0.0000     2.0000 </r>
       <r>    -5.6006     0.0070     2.0004 </r>
       <r>    -5.5473     1.0998     2.0590 </r>
       <r>    -5.4940    21.8594     3.2243 </r>
       <r>    -5.4407    61.5773     6.5070 </r>
       <r>    -5.3874    26.3735     7.9130 </r>
       <r>    -5.3341     1.6188     7.9993 </r>
       <r>    -5.2808     0.0127     8.0000 </r>
       <r>    -5.2275     0.0000     8.0000 </r>
       <r>    -5.1742     0.0000     8.0000 </r>
       <r>    -5.1209     0.0006     8.0000 </r>
       <r>    -5.0675     0.2222     8.0119 </r>
       <r>    -5.0142     9.2796     8.5066 </r>
       <r>    -4.9609    52.5706    11.3091 </r>
       <r>    -4.9076    44.7315    13.6938 </r>
       <r>    -4.8543     5.6490    13.9949 </r>
       <r>    -4.8010     0.0948    14.0000 </r>
       <r>    -4.7477     0.0002    14.0000 </r>
       <r>    -4.6944     0.0001    14.0000 </r>
       <r>    -4.6411     0.0391    14.0021 </r>
       <r>    -4.5877     2.1451    14.1164 </r>
       <r>    -4.5344    15.8624    14.9621 </r>
       <r>    -4.4811    26.1955    16.3586 </r>
       <r>    -4.4278    55.3113    19.3072 </r>
       <r>    -4.3745    44.7740    21.6941 </r>
       <r>    -4.3212     5.6424    21.9949 </r>
       <r>    -4.2679     0.0946    22.0000 </r>
       <r>    -4.2146     0.0002    22.0000 </r>
       <r>    -4.1613     0.0054    22.0003 </r>
       <r>    -4.1080     1.1459    22.0614 </r>
       <r>    -4.0546    30.7965    23.7031 </r>
       <r>    -4.0013   117.6138    29.9732 </r>
       <r>    -3.9480    69.4035    33.6731 </r>
       <r>    -3.8947     8.7241    34.1382 </r>
       <r>    -3.8414    32.8485    35.8893 </r>
       <r>    -3.7881    59.7715    39.0758 </r>
       <r>    -3.7348    16.6773    39.9649 </r>
       <r>    -3.6815     0.6560    39.9998 </r>
       <r>    -3.6282     0.0032    40.0000 </r>
       <r>    -3.5749     0.0000    40.0000 </r>
       <r>    -3.5215     0.0000    40.0000 </r>
       <r>    -3.4682     0.0045    40.0002 </r>
       <r>    -3.4149     0.8224    40.0441 </r>
       <r>    -3.3616    18.7916    41.0459 </r>
       <r>    -3.3083    60.7482    44.2844 </r>
       <r>    -3.2550    30.0068    45.8840 </r>
       <r>    -3.2017     2.1550    45.9989 </r>
       <r>    -3.1484     0.0200    46.0000 </r>
       <r>    -3.0951     0.0074    46.0004 </r>
       <r>    -3.0417     1.1269    46.0605 </r>
       <r>    -2.9884    21.9795    47.2322 </r>
       <r>    -2.9351    61.4357    50.5074 </r>
       <r>    -2.8818    27.5520    51.9762 </r>
       <r>    -2.8285    33.1405    53.7429 </r>
       <r>    -2.7752   118.0312    60.0352 </r>
       <r>    -2.7219    68.3999    63.6816 </r>
       <r>    -2.6686     5.9045    63.9964 </r>
       <r>    -2.6153     0.0678    64.0000 </r>
       <r>    -2.5620     0.0001    64.0000 </r>
       <r>    -2.5086     0.0000    64.0000 </r>
       <r>    -2.4553     0.0000    64.0000 </r>
       <r>    -2.4020     0.0000    64.0000 </r>
       <r>    -2.3487     0.0000    64.0000 </r>
       <r>    -2.2954     0.0000    64.0000 </r>
       <r>    -2.2421     0.0000    64.0000 </r>
       <r>    -2.1888     0.0000    64.0000 </r>
       <r>    -2.1355     0.0000    64.0000 </r>
       <r>    -2.0822     0.0000    64.0000 </r>
       <r>    -2.0289     0.0000    64.0000 </r>
       <r>    -1.9755     0.0000    64.0000 </r>
       <r>    -1.9222     0.0000    64.0000 </r>
       <r>    -1.8689     0.0000    64.0000 </r>
       <r>    -1.8156     0.0000    64.0000 </r>
       <r>    -1.7623     0.0000    64.0000 </r>
       <r>    -1.7090     0.0000    64.0000 </r>
       <r>    -1.6557     0.0000    64.0000 </r>
       <r>    -1.6024     0.0000    64.0000 </r>
       <r>    -1.5491     0.0000    64.0000 </r>
       <r>    -1.4957     0.0000    64.0000 </r>
       <r>    -1.4424     0.0000    64.0000 </r>
       <r>    -1.3891     0.0098    64.0005 </r>
       <r>    -1.3358     1.6818    64.0902 </r>
       <r>    -1.2825    37.4022    66.0841 </r>
       <r>    -1.2292   122.1775    72.5974 </r>
       <r>    -1.1759    86.4850    77.2080 </r>
       <r>    -1.1226    66.6828    80.7629 </r>
       <r>    -1.0693    39.0788    82.8462 </r>
       <r>    -1.0160    63.7067    86.2424 </r>
       <r>    -0.9626    67.1660    89.8230 </r>
       <r>    -0.9093    61.5271    93.1031 </r>
       <r>    -0.8560    16.1713    93.9652 </r>
       <r>    -0.8027     0.6501    93.9998 </r>
       <r>    -0.7494     0.0034    94.0000 </r>
       <r>    -0.6961     0.0000    94.0000 </r>
       <r>    -0.6428     0.0000    94.0000 </r>
       <r>    -0.5895     0.0000    94.0000 </r>
       <r>    -0.5362     0.0000    94.0000 </r>
       <r>    -0.4829     0.0000    94.0000 </r>
       <r>    -0.4295     0.0000    94.0000 </r>
       <r>    -0.3762     0.0038    94.0002 </r>
       <r>    -0.3229     0.5048    94.0271 </r>
       <r>    -0.2696     8.7443    94.4933 </r>
       <r>    -0.2163    33.3669    96.2721 </r>
       <r>    -0.1630    99.7970   101.5923 </r>
       <r>    -0.1097   102.3295   107.0475 </r>
       <r>    -0.0564    17.4468   107.9776 </r>
       <r>    -0.0031     0.4190   107.9999 </r>
       <r>     0.0502     0.0013   108.0000 </r>
       <r>     0.1036     0.0000   108.0000 </r>
       <r>     0.1569     0.0000   108.0000 </r>
       <r>     0.2102     0.0000   108.0000 </r>
       <r>     0.2635     0.0000   108.0000 </r>
       <r>     0.3168     0.0000   108.0000 </r>
       <r>     0.3701     0.0000   108.0000 </r>
       <r>     0.4234     0.0000   108.0000 </r>
       <r>     0.4767     0.0000   108.0000 </r>
       <r>     0.5300     0.0000   108.0000 </r>
       <r>     0.5834     0.0135   108.0007 </r>
       <r>     0.6367     1.6441   108.0884 </r>
       <r>     0.6900    26.2173   109.4860 </r>
       <r>     0.7433    61.2695   112.7523 </r>
       <r>     0.7966    22.2258   113.9372 </r>
       <r>     0.8499     1.1704   113.9996 </r>
       <r>     0.9032     0.0108   114.0001 </r>
       <r>     0.9565     0.5974   114.0320 </r>
       <r>     1.0098    15.9184   114.8806 </r>
       <r>     1.0631    59.4066   118.0476 </r>
       <r>     1.1165    33.7815   119.8485 </r>
       <r>     1.1698     2.8113   119.9984 </r>
       <r>     1.2231     0.0305   120.0000 </r>
       <r>     1.2764     0.0000   120.0000 </r>
       <r>     1.3297     0.0000   120.0000 </r>
       <r>     1.3830     0.0000   120.0000 </r>
       <r>     1.4363     0.0000   120.0000 </r>
       <r>     1.4896     0.0003   120.0000 </r>
       <r>     1.5429     0.1457   120.0078 </r>
       <r>     1.5962     9.6531   120.5224 </r>
       <r>     1.6496    87.5119   125.1877 </r>
       <r>     1.7029   145.7839   132.9595 </r>
       <r>     1.7562    79.4990   137.1976 </r>
       <r>     1.8095    14.5788   137.9748 </r>
       <r>     1.8628     0.4709   137.9999 </r>
       <r>     1.9161     0.0019   138.0000 </r>
       <r>     1.9694     0.0000   138.0000 </r>
       <r>     2.0227     0.0000   138.0000 </r>
       <r>     2.0760     0.0000   138.0000 </r>
       <r>     2.1294     0.0053   138.0003 </r>
       <r>     2.1827     0.9154   138.0491 </r>
       <r>     2.2360    19.9295   139.1115 </r>
       <r>     2.2893    63.6177   142.5030 </r>
       <r>     2.3426    75.3237   146.5185 </r>
       <r>     2.3959   146.8908   154.3493 </r>
       <r>     2.4492   112.5602   160.3500 </r>
       <r>     2.5025    29.3005   161.9120 </r>
       <r>     2.5558     1.6383   161.9993 </r>
       <r>     2.6091     0.0572   162.0024 </r>
       <r>     2.6625     4.5885   162.2470 </r>
       <r>     2.7158    61.6631   165.5343 </r>
       <r>     2.7691   120.9472   171.9820 </r>
       <r>     2.8224    36.3037   173.9174 </r>
       <r>     2.8757     1.5750   174.0013 </r>
       <r>     2.9290     3.6091   174.1937 </r>
       <r>     2.9823    53.2926   177.0348 </r>
       <r>     3.0356   121.0102   183.4859 </r>
       <r>     3.0889    44.6322   185.8652 </r>
       <r>     3.1422     2.5089   185.9990 </r>
       <r>     3.1956     0.0193   186.0000 </r>
       <r>     3.2489     0.0893   186.0048 </r>
       <r>     3.3022     6.2922   186.3402 </r>
       <r>     3.3555    65.3929   189.8263 </r>
       <r>     3.4088   120.8847   196.2707 </r>
       <r>     3.4621    81.0627   200.5922 </r>
       <r>     3.5154    54.3974   203.4922 </r>
       <r>     3.5687     9.3020   203.9880 </r>
       <r>     3.6220     0.3179   204.0050 </r>
       <r>     3.6754     7.3629   204.3975 </r>
       <r>     3.7287    82.0810   208.7733 </r>
       <r>     3.7820   164.8585   217.5619 </r>
       <r>     3.8353    75.3122   221.5769 </r>
       <r>     3.8886     7.8002   221.9927 </r>
       <r>     3.9419     0.2403   222.0055 </r>
       <r>     3.9952     3.9124   222.2141 </r>
       <r>     4.0485    27.3176   223.6704 </r>
       <r>     4.1018    65.7303   227.1745 </r>
       <r>     4.1551    46.9495   229.6774 </r>
       <r>     4.2085     5.9586   229.9950 </r>
       <r>     4.2618     1.5384   230.0770 </r>
       <r>     4.3151    25.3740   231.4297 </r>
       <r>     4.3684    77.5463   235.5638 </r>
       <r>     4.4217    82.3804   239.9555 </r>
       <r>     4.4750    35.8335   241.8658 </r>
       <r>     4.5283    14.8715   242.6586 </r>
       <r>     4.5816    40.2367   244.8036 </r>
       <r>     4.6349    20.8438   245.9148 </r>
       <r>     4.6882     1.5822   245.9992 </r>
       <r>     4.7416     0.0330   246.0009 </r>
       <r>     4.7949     1.9393   246.1043 </r>
       <r>     4.8482    28.3795   247.6172 </r>
       <r>     4.9015    60.9691   250.8675 </r>
       <r>     4.9548    20.2672   251.9480 </r>
       <r>     5.0081     0.9702   251.9997 </r>
       <r>     5.0614     0.0060   252.0000 </r>
       <r>     5.1147     0.0000   252.0000 </r>
       <r>     5.1680     0.0000   252.0000 </r>
       <r>     5.2214     0.0116   252.0006 </r>
       <r>     5.2747     1.3000   252.0699 </r>
       <r>     5.3280    18.9916   253.0824 </r>
       <r>     5.3813    40.6506   255.2495 </r>
       <r>     5.4346    13.4369   255.9658 </r>
       <r>     5.4879     0.6378   255.9998 </r>
       <r>     5.5412     0.0039   256.0000 </r>
       <r>     5.5945     0.0000   256.0000 </r>
       <r>     5.6478     0.0000   256.0000 </r>
       <r>     5.7011     0.0000   256.0000 </r>
       <r>     5.7545     0.0000   256.0000 </r>
       <r>     5.8078     0.0000   256.0000 </r>
       <r>     5.8611     0.0000   256.0000 </r>
       <r>     5.9144     0.0000   256.0000 </r>
       <r>     5.9677     0.0000   256.0000 </r>
       <r>     6.0210     0.0000   256.0000 </r>
       <r>     6.0743     0.0000   256.0000 </r>
       <r>     6.1276     0.0000   256.0000 </r>
       <r>     6.1809     0.0000   256.0000 </r>
       <r>     6.2342     0.0000   256.0000 </r>
       <r>     6.2876     0.0000   256.0000 </r>
       <r>     6.3409     0.0000   256.0000 </r>
       <r>     6.3942     0.0001   256.0000 </r>
       <r>     6.4475     0.0609   256.0033 </r>
       <r>     6.5008     4.3052   256.2328 </r>
       <r>     6.5541    40.2840   258.3803 </r>
       <r>     6.6074    55.8252   261.3564 </r>
       <r>     6.6607    11.7319   261.9818 </r>
       <r>     6.7140     0.3401   261.9999 </r>
       <r>     6.7674     0.0012   262.0000 </r>
       <r>     6.8207     0.0000   262.0000 </r>
       <r>     6.8740     0.0136   262.0007 </r>
       <r>     6.9273     1.6735   262.0899 </r>
       <r>     6.9806    26.5769   263.5068 </r>
       <r>     7.0339    61.3566   266.7777 </r>
       <r>     7.0872    21.8076   267.9403 </r>
       <r>     7.1405     1.2705   268.0080 </r>
       <r>     7.1938     4.7115   268.2592 </r>
       <r>     7.2471    19.4345   269.2952 </r>
       <r>     7.3005    12.1080   269.9407 </r>
       <r>     7.3538     1.1054   269.9997 </r>
       <r>     7.4071     1.0488   270.0556 </r>
       <r>     7.4604    21.0801   271.1794 </r>
       <r>     7.5137    61.4593   274.4558 </r>
       <r>     7.5670    35.0123   276.3223 </r>
       <r>     7.6203    51.2144   279.0525 </r>
       <r>     7.6736    48.2789   281.6263 </r>
       <r>     7.7269    16.5490   282.5085 </r>
       <r>     7.7802    78.5033   286.6936 </r>
       <r>     7.8336   109.4259   292.5271 </r>
       <r>     7.8869    26.6092   293.9457 </r>
       <r>     7.9402     2.2758   294.0670 </r>
       <r>     7.9935    32.5978   295.8048 </r>
       <r>     8.0468   124.5394   302.4440 </r>
       <r>     8.1001    87.2990   307.0980 </r>
       <r>     8.1534    16.0730   307.9548 </r>
       <r>     8.2067     1.5594   308.0380 </r>
       <r>     8.2600    17.5475   308.9734 </r>
       <r>     8.3134    60.3135   312.1888 </r>
       <r>     8.3667    31.5687   313.8717 </r>
       <r>     8.4200     4.5713   314.1154 </r>
       <r>     8.4733    42.6125   316.3871 </r>
       <r>     8.5266   131.8664   323.4169 </r>
       <r>     8.5799    76.3844   327.4890 </r>
       <r>     8.6332     9.3518   327.9875 </r>
       <r>     8.6865     0.2328   328.0000 </r>
       <r>     8.7398     0.0009   328.0000 </r>
       <r>     8.7931     0.0000   328.0000 </r>
       <r>     8.8465     0.0000   328.0000 </r>
       <r>     8.8998     0.0000   328.0000 </r>
       <r>     8.9531     0.0000   328.0000 </r>
       <r>     9.0064     0.0000   328.0000 </r>
       <r>     9.0597     0.0000   328.0000 </r>
       <r>     9.1130     0.0000   328.0000 </r>
       <r>     9.1663     0.0000   328.0000 </r>
       <r>     9.2196     0.0000   328.0000 </r>
       <r>     9.2729     0.0000   328.0000 </r>
      </set>
     </set>
    </array>
   </total>
  </dos>
 </calculation>
 <structure name="finalpos" >
  <crystal>
   <varray name="basis" >
    <v>      10.93252578       0.00000000       0.00000000 </v>
    <v>       0.00000000      10.93252578       0.00000000 </v>
    <v>       0.00000000       0.00000000      10.93252578 </v>
   </varray>
   <i name="volume">   1306.65679237 </i>
   <varray name="rec_basis" >
    <v>       0.09147017       0.00000000       0.00000000 </v>
    <v>       0.00000000       0.09147017       0.00000000 </v>
    <v>       0.00000000       0.00000000       0.09147017 </v>
   </varray>
  </crystal>
  <varray name="positions" >
   <v>       0.44024411       0.43750000       0.43750000 </v>
   <v>       0.93750000       0.43750000       0.43750000 </v>
   <v>       0.43750000       0.93750000       0.43750000 </v>
   <v>       0.93750000       0.93750000       0.43750000 </v>
   <v>       0.43750000       0.43750000       0.93750000 </v>
   <v>       0.93750000       0.43750000       0.93750000 </v>
   <v>       0.43750000       0.93750000       0.93750000 </v>
   <v>       0.93750000       0.93750000       0.93750000 </v>
   <v>       0.43750000       0.18750000       0.18750000 </v>
   <v>       0.93750000       0.18750000       0.18750000 </v>
   <v>       0.43750000       0.68750000       0.18750000 </v>
   <v>       0.93750000       0.68750000       0.18750000 </v>
   <v>       0.43750000       0.18750000       0.68750000 </v>
   <v>       0.93750000       0.18750000       0.68750000 </v>
   <v>       0.43750000       0.68750000       0.68750000 </v>
   <v>       0.93750000       0.68750000       0.68750000 </v>
   <v>       0.18750000       0.43750000       0.18750000 </v>
   <v>       0.68750000       0.43750000       0.18475589 </v>
   <v>       0.18750000       0.93750000       0.18750000 </v>
   <v>       0.68750000       0.93750000       0.18750000 </v>
   <v>       0.18750000       0.43750000       0.68750000 </v>
   <v>       0.68750000       0.43750000       0.68750000 </v>
   <v>       0.18750000       0.93750000       0.68750000 </v>
   <v>       0.68750000       0.93750000       0.68750000 </v>
   <v>       0.18750000       0.18750000       0.43750000 </v>
   <v>       0.68750000       0.18750000       0.43750000 </v>
   <v>       0.18750000       0.68750000       0.43750000 </v>
   <v>       0.68750000       0.68750000       0.43750000 </v>
   <v>       0.18750000       0.18750000       0.93750000 </v>
   <v>       0.68750000       0.18750000       0.93750000 </v>
   <v>       0.18750000       0.68750000       0.93750000 </v>
   <v>       0.68750000       0.68750000       0.93750000 </v>
   <v>       0.06250000       0.06250000       0.06250000 </v>
   <v>       0.56250000       0.06250000       0.06250000 </v>
   <v>       0.06250000       0.56250000       0.06250000 </v>
   <v>       0.56250000       0.56250000       0.06250000 </v>
   <v>       0.06250000       0.06250000       0.56250000 </v>
   <v>       0.56250000       0.06250000       0.56250000 </v>
   <v>       0.06250000       0.56250000       0.56250000 </v>
   <v>       0.56250000       0.56250000       0.56250000 </v>
   <v>       0.06250000       0.31250000       0.31250000 </v>
   <v>       0.56250000       0.31250000       0.31250000 </v>
   <v>       0.06250000       0.81250000       0.31250000 </v>
   <v>       0.56250000       0.81250000       0.31250000 </v>
   <v>       0.06250000       0.31250000       0.81250000 </v>
   <v>       0.56250000       0.31250000       0.81250000 </v>
   <v>       0.06250000       0.81250000       0.81250000 </v>
   <v>       0.56250000       0.81250000       0.81250000 </v>
   <v>       0.31250000       0.06250000       0.31250000 </v>
   <v>       0.81250000       0.06250000       0.31250000 </v>
   <v>       0.31250000       0.56250000       0.31250000 </v>
   <v>       0.81250000       0.56250000       0.31250000 </v>
   <v>       0.31250000       0.06250000       0.81250000 </v>
   <v>       0.81250000       0.06250000       0.81250000 </v>
   <v>       0.31250000       0.56250000       0.81250000 </v>
   <v>       0.81250000       0.56250000       0.81250000 </v>
   <v>       0.31250000       0.31250000       0.06250000 </v>
   <v>       0.81250000       0.31250000       0.06250000 </v>
   <v>       0.31250000       0.81250000       0.06250000 </v>
   <v>       0.81250000       0.81250000       0.06250000 </v>
   <v>       0.31250000       0.31250000       0.56250000 </v>
   <v>       0.81250000       0.31250000       0.56250000 </v>
   <v>       0.31250000       0.81250000       0.56250000 </v>
   <v>       0.81250000       0.81250000       0.56250000 </v>
  </varray>
 </structure>
</modeling>
