<?xml version="1.0" encoding="ISO-8859-1"?>
<modeling>
 <generator>
  <i name="program" type="string">vasp </i>
  <i name="version" type="string">5.4.1  </i>
  <i name="subversion" type="string">05Feb16 (build Mar 26 2016 11:58:25) complex                          parallel </i>
  <i name="platform" type="string">IFC91_ompi </i>
  <i name="date" type="string">2017 03 12 </i>
  <i name="time" type="string">12:16:41 </i>
 </generator>
 <incar>
  <i type="string" name="PREC">accurate</i>
  <i type="int" name="IALGO">    38</i>
  <i type="logical" name="ADDGRID"> T  </i>
  <i type="int" name="NELMIN">     5</i>
  <i type="int" name="IBRION">    -1</i>
  <i name="EDIFF">      0.00000001</i>
  <i name="ENCUT">    300.00000000</i>
  <i type="logical" name="LREAL"> F  </i>
  <i type="int" name="ISMEAR">     0</i>
  <i name="SIGMA">      0.05000000</i>
  <i type="logical" name="LWAVE"> F  </i>
  <i type="logical" name="LCHARG"> F  </i>
  <v type="int" name="KPOINT_BSE">    -1     0     0     0</v>
 </incar>
 <kpoints>
  <generation param="Monkhorst-Pack">
   <v type="int" name="divisions">       2        2        2 </v>
   <v name="usershift">      0.00000000       0.00000000       0.00000000 </v>
   <v name="genvec1">      0.50000000       0.00000000       0.00000000 </v>
   <v name="genvec2">      0.00000000       0.50000000       0.00000000 </v>
   <v name="genvec3">      0.00000000       0.00000000       0.50000000 </v>
   <v name="shift">      0.50000000       0.50000000       0.50000000 </v>
  </generation>
  <varray name="kpointlist" >
   <v>       0.25000000       0.25000000       0.25000000 </v>
   <v>      -0.25000000       0.25000000       0.25000000 </v>
   <v>       0.25000000      -0.25000000       0.25000000 </v>
  </varray>
  <varray name="weights" >
   <v>       0.25000000 </v>
   <v>       0.25000000 </v>
   <v>       0.50000000 </v>
  </varray>
 </kpoints>
 <parameters>
  <separator name="general" >
   <i type="string" name="SYSTEM">unknown system</i>
   <i type="logical" name="LCOMPAT"> F  </i>
  </separator>
  <separator name="electronic" >
   <i type="string" name="PREC">accura</i>
   <i name="ENMAX">    300.00000000</i>
   <i name="ENAUG">    322.06900000</i>
   <i name="EDIFF">      0.00000001</i>
   <i type="int" name="IALGO">    38</i>
   <i type="int" name="IWAVPR">    10</i>
   <i type="int" name="NBANDS">   164</i>
   <i name="NELECT">    256.00000000</i>
   <i type="int" name="TURBO">     0</i>
   <i type="int" name="IRESTART">     0</i>
   <i type="int" name="NREBOOT">     0</i>
   <i type="int" name="NMIN">     0</i>
   <i name="EREF">      0.00000000</i>
   <separator name="electronic smearing" >
    <i type="int" name="ISMEAR">     0</i>
    <i name="SIGMA">      0.05000000</i>
    <i name="KSPACING">      0.50000000</i>
    <i type="logical" name="KGAMMA"> T  </i>
   </separator>
   <separator name="electronic projectors" >
    <i type="logical" name="LREAL"> F  </i>
    <v name="ROPT">      0.00000000</v>
    <i type="int" name="LMAXPAW">  -100</i>
    <i type="int" name="LMAXMIX">     2</i>
    <i type="logical" name="NLSPLINE"> F  </i>
   </separator>
   <separator name="electronic startup" >
    <i type="int" name="ISTART">     0</i>
    <i type="int" name="ICHARG">     2</i>
    <i type="int" name="INIWAV">     1</i>
   </separator>
   <separator name="electronic spin" >
    <i type="int" name="ISPIN">     1</i>
    <i type="logical" name="LNONCOLLINEAR"> F  </i>
    <v name="MAGMOM">      1.00000000      1.00000000      1.00000000      1.00000000      1.00000000      1.00000000      1.00000000      1.00000000      1.00000000      1.00000000      1.00000000      1.00000000      1.00000000      1.00000000      1.00000000      1.00000000      1.00000000      1.00000000      1.00000000      1.00000000
      1.00000000      1.00000000      1.00000000      1.00000000      1.00000000      1.00000000      1.00000000      1.00000000      1.00000000      1.00000000      1.00000000      1.00000000      1.00000000      1.00000000      1.00000000      1.00000000      1.00000000      1.00000000      1.00000000      1.00000000
      1.00000000      1.00000000      1.00000000      1.00000000      1.00000000      1.00000000      1.00000000      1.00000000      1.00000000      1.00000000      1.00000000      1.00000000      1.00000000      1.00000000      1.00000000      1.00000000      1.00000000      1.00000000      1.00000000      1.00000000
      1.00000000      1.00000000      1.00000000      1.00000000</v>
    <i name="NUPDOWN">     -1.00000000</i>
    <i type="logical" name="LSORBIT"> F  </i>
    <v name="SAXIS">      0.00000000      0.00000000      1.00000000</v>
    <i type="logical" name="LSPIRAL"> F  </i>
    <v name="QSPIRAL">      0.00000000      0.00000000      0.00000000</v>
    <i type="logical" name="LZEROZ"> F  </i>
   </separator>
   <separator name="electronic exchange-correlation" >
    <i type="logical" name="LASPH"> F  </i>
    <i type="logical" name="LMETAGGA"> F  </i>
   </separator>
   <separator name="electronic convergence" >
    <i type="int" name="NELM">    60</i>
    <i type="int" name="NELMDL">    -5</i>
    <i type="int" name="NELMIN">     5</i>
    <i name="ENINI">    300.00000000</i>
    <separator name="electronic convergence detail" >
     <i type="logical" name="LDIAG"> T  </i>
     <i type="logical" name="LSUBROT"> F  </i>
     <i name="WEIMIN">      0.00000000</i>
     <i name="EBREAK">      0.00000000</i>
     <i name="DEPER">      0.30000000</i>
     <i type="int" name="NRMM">     4</i>
     <i name="TIME">      0.40000000</i>
    </separator>
   </separator>
   <separator name="electronic mixer" >
    <i name="AMIX">      0.40000000</i>
    <i name="BMIX">      1.00000000</i>
    <i name="AMIN">      0.10000000</i>
    <i name="AMIX_MAG">      1.60000000</i>
    <i name="BMIX_MAG">      1.00000000</i>
    <separator name="electronic mixer details" >
     <i type="int" name="IMIX">     4</i>
     <i type="logical" name="MIXFIRST"> F  </i>
     <i type="int" name="MAXMIX">   -45</i>
     <i name="WC">    100.00000000</i>
     <i type="int" name="INIMIX">     1</i>
     <i type="int" name="MIXPRE">     1</i>
     <i type="int" name="MREMOVE">     5</i>
    </separator>
   </separator>
   <separator name="electronic dipolcorrection" >
    <i type="logical" name="LDIPOL"> F  </i>
    <i type="logical" name="LMONO"> F  </i>
    <i type="int" name="IDIPOL">     0</i>
    <i name="EPSILON">      1.00000000</i>
    <v name="DIPOL">   -100.00000000   -100.00000000   -100.00000000</v>
    <i name="EFIELD">      0.00000000</i>
   </separator>
  </separator>
  <separator name="grids" >
   <i type="int" name="NGX">    64</i>
   <i type="int" name="NGY">    64</i>
   <i type="int" name="NGZ">    64</i>
   <i type="int" name="NGXF">   128</i>
   <i type="int" name="NGYF">   128</i>
   <i type="int" name="NGZF">   128</i>
   <i type="logical" name="ADDGRID"> T  </i>
  </separator>
  <separator name="ionic" >
   <i type="int" name="NSW">     0</i>
   <i type="int" name="IBRION">    -1</i>
   <i type="int" name="ISIF">     2</i>
   <i name="PSTRESS">      0.00000000</i>
   <i name="EDIFFG">      0.00000010</i>
   <i type="int" name="NFREE">     0</i>
   <i name="POTIM">      0.50000000</i>
   <i name="SMASS">     -3.00000000</i>
   <i name="SCALEE">      1.00000000</i>
  </separator>
  <separator name="ionic md" >
   <i name="TEBEG">      0.00010000</i>
   <i name="TEEND">      0.00010000</i>
   <i type="int" name="NBLOCK">     1</i>
   <i type="int" name="KBLOCK">     1</i>
   <i type="int" name="NPACO">   256</i>
   <i name="APACO">     16.00000000</i>
  </separator>
  <separator name="symmetry" >
   <i type="int" name="ISYM">     2</i>
   <i name="SYMPREC">      0.00001000</i>
  </separator>
  <separator name="dos" >
   <i type="logical" name="LORBIT"> F  </i>
   <v name="RWIGS">     -1.00000000</v>
   <i type="int" name="NEDOS">   301</i>
   <i name="EMIN">     10.00000000</i>
   <i name="EMAX">    -10.00000000</i>
   <i name="EFERMI">      0.00000000</i>
  </separator>
  <separator name="writing" >
   <i type="int" name="NWRITE">     2</i>
   <i type="logical" name="LWAVE"> F  </i>
   <i type="logical" name="LCHARG"> F  </i>
   <i type="logical" name="LPARD"> F  </i>
   <i type="logical" name="LVTOT"> F  </i>
   <i type="logical" name="LVHAR"> F  </i>
   <i type="logical" name="LELF"> F  </i>
   <i type="logical" name="LOPTICS"> F  </i>
   <v name="STM">      0.00000000      0.00000000      0.00000000      0.00000000      0.00000000      0.00000000      0.00000000</v>
  </separator>
  <separator name="performance" >
   <i type="int" name="NPAR">     4</i>
   <i type="int" name="NSIM">     4</i>
   <i type="int" name="NBLK">    -1</i>
   <i type="logical" name="LPLANE"> T  </i>
   <i type="logical" name="LSCALAPACK"> T  </i>
   <i type="logical" name="LSCAAWARE"> F  </i>
   <i type="logical" name="LSCALU"> F  </i>
   <i type="logical" name="LASYNC"> F  </i>
   <i type="logical" name="LORBITALREAL"> F  </i>
  </separator>
  <separator name="miscellaneous" >
   <i type="int" name="IDIOT">     3</i>
   <i type="logical" name="LMUSIC"> F  </i>
   <v name="POMASS">     28.08500000</v>
   <v name="DARWINR">      0.00000000</v>
   <v name="DARWINV">      1.00000000</v>
   <i type="logical" name="LCORR"> T  </i>
  </separator>
  <i type="logical" name="GGA_COMPAT"> T  </i>
  <i type="logical" name="LBERRY"> F  </i>
  <i type="int" name="ICORELEVEL">     0</i>
  <i type="logical" name="LDAU"> F  </i>
  <i type="int" name="I_CONSTRAINED_M">     0</i>
  <separator name="electronic exchange-correlation" >
   <i type="string" name="GGA">--</i>
   <i type="int" name="VOSKOWN">     0</i>
   <i type="logical" name="LHFCALC"> F  </i>
   <i type="string" name="PRECFOCK"></i>
   <i type="logical" name="LSYMGRAD"> F  </i>
   <i type="logical" name="LHFONE"> F  </i>
   <i type="logical" name="LRHFCALC"> F  </i>
   <i type="logical" name="LTHOMAS"> F  </i>
   <i type="logical" name="LMODELHF"> F  </i>
   <i name="ENCUT4O">     -1.00000000</i>
   <i type="int" name="EXXOEP">     0</i>
   <i type="int" name="FOURORBIT">     0</i>
   <i name="AEXX">      0.00000000</i>
   <i name="HFALPHA">      0.00000000</i>
   <i name="MCALPHA">      0.00000000</i>
   <i name="ALDAX">      1.00000000</i>
   <i name="AGGAX">      1.00000000</i>
   <i name="ALDAC">      1.00000000</i>
   <i name="AGGAC">      1.00000000</i>
   <i type="int" name="NKREDX">     1</i>
   <i type="int" name="NKREDY">     1</i>
   <i type="int" name="NKREDZ">     1</i>
   <i type="logical" name="SHIFTRED"> F  </i>
   <i type="logical" name="ODDONLY"> F  </i>
   <i type="logical" name="EVENONLY"> F  </i>
   <i type="int" name="LMAXFOCK">     0</i>
   <i type="int" name="NMAXFOCKAE">     0</i>
   <i type="logical" name="LFOCKAEDFT"> F  </i>
   <i name="HFSCREEN">      0.00000000</i>
   <i name="HFSCREENC">      0.00000000</i>
   <i type="int" name="NBANDSGWLOW">     0</i>
  </separator>
  <separator name="vdW DFT" >
   <i type="logical" name="LUSE_VDW"> F  </i>
   <i name="Zab_VDW">     -0.84910000</i>
   <i name="PARAM1">      0.12340000</i>
   <i name="PARAM2">      1.00000000</i>
   <i name="PARAM3">      0.00000000</i>
  </separator>
  <separator name="model GW" >
   <i type="int" name="MODEL_GW">     0</i>
   <i name="MODEL_EPS0">     12.24990743</i>
   <i name="MODEL_ALPHA">      1.00000000</i>
  </separator>
  <separator name="linear response parameters" >
   <i type="logical" name="LEPSILON"> F  </i>
   <i type="logical" name="LRPA"> F  </i>
   <i type="logical" name="LNABLA"> F  </i>
   <i type="logical" name="LVEL"> F  </i>
   <i type="int" name="KINTER">     0</i>
   <i name="CSHIFT">      0.10000000</i>
   <i name="OMEGAMAX">     -1.00000000</i>
   <i name="DEG_THRESHOLD">      0.00200000</i>
  </separator>
  <separator name="orbital magnetization" >
   <i type="logical" name="NUCIND"> F  </i>
   <v name="MAGPOS">      0.00000000      0.00000000      0.00000000</v>
   <i type="logical" name="LNICSALL"> T  </i>
   <i type="logical" name="ORBITALMAG"> F  </i>
   <i type="logical" name="LMAGBLOCH"> F  </i>
   <i type="logical" name="LCHIMAG"> F  </i>
   <i type="logical" name="LGAUGE"> T  </i>
   <i type="int" name="MAGATOM">     0</i>
   <v name="MAGDIPOL">      0.00000000      0.00000000      0.00000000</v>
   <v name="AVECCONST">      0.00000000      0.00000000      0.00000000</v>
  </separator>
  <separator name="response functions" >
   <i type="logical" name="LADDER"> F  </i>
   <i type="logical" name="LFXC"> F  </i>
   <i type="logical" name="LHARTREE"> T  </i>
   <i type="int" name="IBSE">     0</i>
   <v type="int" name="KPOINT">    -1     0     0     0</v>
   <i type="logical" name="LTCTE"> F  </i>
   <i type="logical" name="LTETE"> F  </i>
   <i type="logical" name="LTRIPLET"> F  </i>
   <i type="logical" name="LFXCEPS"> F  </i>
   <i type="logical" name="LFXHEG"> F  </i>
   <i type="int" name="NATURALO">     0</i>
   <i type="logical" name="L2ORDER"> F  </i>
   <i type="logical" name="LUSEW"> F  </i>
   <i name="ENCUTGW">     -2.00000000</i>
   <i name="ENCUTGWSOFT">     -2.00000000</i>
   <i name="ENCUTLF">     -1.00000000</i>
   <i type="int" name="LMAXMP2">    -1</i>
   <i name="SCISSOR">      0.00000000</i>
   <i type="int" name="NOMEGA">     0</i>
   <i type="int" name="NOMEGAR">     0</i>
   <i type="int" name="NBANDSGW">    -1</i>
   <i type="int" name="NBANDSO">    -1</i>
   <i type="int" name="NBANDSV">    -1</i>
   <i type="int" name="NELM">     1</i>
   <i type="int" name="NELMHF">     1</i>
   <i type="int" name="DIM">     3</i>
   <i type="int" name="ANTIRES">     0</i>
   <i name="OMEGAMAX">    -30.00000000</i>
   <i name="OMEGAMIN">    -30.00000000</i>
   <i name="OMEGATL">   -200.00000000</i>
   <i type="int" name="OMEGAGRID">     0</i>
   <i name="CSHIFT">     -0.10000000</i>
   <i type="logical" name="SELFENERGY"> F  </i>
   <i type="logical" name="LSPECTRAL"> F  </i>
   <i type="logical" name="LSPECTRALGW"> F  </i>
   <i type="logical" name="LSINGLES"> F  </i>
   <i type="logical" name="LFERMIGW"> F  </i>
   <i type="logical" name="ODDONLYGW"> F  </i>
   <i type="logical" name="EVENONLYGW"> F  </i>
   <i type="int" name="NKREDLFX">     1</i>
   <i type="int" name="NKREDLFY">     1</i>
   <i type="int" name="NKREDLFZ">     1</i>
   <i type="int" name="MAXMEM">  1800</i>
   <i type="int" name="TELESCOPE">     0</i>
   <i type="int" name="TAUPAR">     1</i>
   <i type="int" name="OMEGAPAR">    -1</i>
   <i name="LAMBDA">      1.00000000</i>
  </separator>
  <separator name="External order field" >
   <i name="OFIELD_KAPPA">      0.00000000</i>
   <v name="OFIELD_K">      0.00000000      0.00000000      0.00000000</v>
   <i name="OFIELD_Q6_NEAR">      0.00000000</i>
   <i name="OFIELD_Q6_FAR">      0.00000000</i>
   <i name="OFIELD_A">      0.00000000</i>
  </separator>
 </parameters>
 <atominfo>
  <atoms>      64 </atoms>
  <types>       1 </types>
  <array name="atoms" >
   <dimension dim="1">ion</dimension>
   <field type="string">element</field>
   <field type="int">atomtype</field>
   <set>
    <rc><c>Si</c><c>   1</c></rc>
    <rc><c>Si</c><c>   1</c></rc>
    <rc><c>Si</c><c>   1</c></rc>
    <rc><c>Si</c><c>   1</c></rc>
    <rc><c>Si</c><c>   1</c></rc>
    <rc><c>Si</c><c>   1</c></rc>
    <rc><c>Si</c><c>   1</c></rc>
    <rc><c>Si</c><c>   1</c></rc>
    <rc><c>Si</c><c>   1</c></rc>
    <rc><c>Si</c><c>   1</c></rc>
    <rc><c>Si</c><c>   1</c></rc>
    <rc><c>Si</c><c>   1</c></rc>
    <rc><c>Si</c><c>   1</c></rc>
    <rc><c>Si</c><c>   1</c></rc>
    <rc><c>Si</c><c>   1</c></rc>
    <rc><c>Si</c><c>   1</c></rc>
    <rc><c>Si</c><c>   1</c></rc>
    <rc><c>Si</c><c>   1</c></rc>
    <rc><c>Si</c><c>   1</c></rc>
    <rc><c>Si</c><c>   1</c></rc>
    <rc><c>Si</c><c>   1</c></rc>
    <rc><c>Si</c><c>   1</c></rc>
    <rc><c>Si</c><c>   1</c></rc>
    <rc><c>Si</c><c>   1</c></rc>
    <rc><c>Si</c><c>   1</c></rc>
    <rc><c>Si</c><c>   1</c></rc>
    <rc><c>Si</c><c>   1</c></rc>
    <rc><c>Si</c><c>   1</c></rc>
    <rc><c>Si</c><c>   1</c></rc>
    <rc><c>Si</c><c>   1</c></rc>
    <rc><c>Si</c><c>   1</c></rc>
    <rc><c>Si</c><c>   1</c></rc>
    <rc><c>Si</c><c>   1</c></rc>
    <rc><c>Si</c><c>   1</c></rc>
    <rc><c>Si</c><c>   1</c></rc>
    <rc><c>Si</c><c>   1</c></rc>
    <rc><c>Si</c><c>   1</c></rc>
    <rc><c>Si</c><c>   1</c></rc>
    <rc><c>Si</c><c>   1</c></rc>
    <rc><c>Si</c><c>   1</c></rc>
    <rc><c>Si</c><c>   1</c></rc>
    <rc><c>Si</c><c>   1</c></rc>
    <rc><c>Si</c><c>   1</c></rc>
    <rc><c>Si</c><c>   1</c></rc>
    <rc><c>Si</c><c>   1</c></rc>
    <rc><c>Si</c><c>   1</c></rc>
    <rc><c>Si</c><c>   1</c></rc>
    <rc><c>Si</c><c>   1</c></rc>
    <rc><c>Si</c><c>   1</c></rc>
    <rc><c>Si</c><c>   1</c></rc>
    <rc><c>Si</c><c>   1</c></rc>
    <rc><c>Si</c><c>   1</c></rc>
    <rc><c>Si</c><c>   1</c></rc>
    <rc><c>Si</c><c>   1</c></rc>
    <rc><c>Si</c><c>   1</c></rc>
    <rc><c>Si</c><c>   1</c></rc>
    <rc><c>Si</c><c>   1</c></rc>
    <rc><c>Si</c><c>   1</c></rc>
    <rc><c>Si</c><c>   1</c></rc>
    <rc><c>Si</c><c>   1</c></rc>
    <rc><c>Si</c><c>   1</c></rc>
    <rc><c>Si</c><c>   1</c></rc>
    <rc><c>Si</c><c>   1</c></rc>
    <rc><c>Si</c><c>   1</c></rc>
   </set>
  </array>
  <array name="atomtypes" >
   <dimension dim="1">type</dimension>
   <field type="int">atomspertype</field>
   <field type="string">element</field>
   <field>mass</field>
   <field>valence</field>
   <field type="string">pseudopotential</field>
   <set>
    <rc><c>  64</c><c>Si</c><c>     28.08500000</c><c>      4.00000000</c><c>  PAW_PBE Si 05Jan2001                  </c></rc>
   </set>
  </array>
 </atominfo>
 <structure name="initialpos" >
  <crystal>
   <varray name="basis" >
    <v>      10.93252578       0.00000000       0.00000000 </v>
    <v>       0.00000000      10.93252578       0.00000000 </v>
    <v>       0.00000000       0.00000000      10.93252578 </v>
   </varray>
   <i name="volume">   1306.65679237 </i>
   <varray name="rec_basis" >
    <v>       0.09147017       0.00000000       0.00000000 </v>
    <v>       0.00000000       0.09147017       0.00000000 </v>
    <v>       0.00000000       0.00000000       0.09147017 </v>
   </varray>
  </crystal>
  <varray name="positions" >
   <v>       0.44024411       0.43750000       0.43750000 </v>
   <v>       0.93750000       0.43750000       0.43750000 </v>
   <v>       0.43750000       0.93750000       0.43750000 </v>
   <v>       0.93750000       0.93750000       0.43750000 </v>
   <v>       0.43750000       0.43750000       0.93750000 </v>
   <v>       0.93750000       0.43750000       0.93750000 </v>
   <v>       0.43750000       0.93750000       0.93750000 </v>
   <v>       0.93750000       0.93750000       0.93750000 </v>
   <v>       0.43750000       0.18750000       0.18750000 </v>
   <v>       0.93750000       0.18750000       0.18750000 </v>
   <v>       0.43750000       0.68750000       0.18750000 </v>
   <v>       0.93750000       0.68750000       0.18750000 </v>
   <v>       0.43750000       0.18750000       0.68750000 </v>
   <v>       0.93750000       0.18750000       0.68750000 </v>
   <v>       0.43750000       0.68750000       0.68750000 </v>
   <v>       0.93750000       0.68750000       0.68750000 </v>
   <v>       0.18750000       0.43750000       0.18750000 </v>
   <v>       0.68750000       0.43750000       0.18750000 </v>
   <v>       0.18750000       0.93750000       0.18750000 </v>
   <v>       0.68750000       0.93750000       0.18750000 </v>
   <v>       0.18750000       0.43750000       0.68750000 </v>
   <v>       0.68750000       0.43750000       0.68750000 </v>
   <v>       0.18750000       0.93750000       0.68750000 </v>
   <v>       0.68750000       0.93750000       0.68750000 </v>
   <v>       0.18750000       0.18750000       0.43750000 </v>
   <v>       0.68750000       0.18750000       0.43750000 </v>
   <v>       0.18750000       0.68750000       0.43750000 </v>
   <v>       0.68750000       0.68750000       0.43750000 </v>
   <v>       0.18750000       0.18750000       0.93750000 </v>
   <v>       0.68750000       0.18750000       0.93750000 </v>
   <v>       0.18750000       0.68750000       0.93750000 </v>
   <v>       0.68750000       0.68750000       0.93750000 </v>
   <v>       0.06250000       0.06250000       0.06250000 </v>
   <v>       0.56524411       0.06250000       0.06250000 </v>
   <v>       0.06250000       0.56250000       0.06250000 </v>
   <v>       0.56250000       0.56250000       0.06250000 </v>
   <v>       0.06250000       0.06250000       0.56250000 </v>
   <v>       0.56250000       0.06250000       0.56250000 </v>
   <v>       0.06250000       0.56250000       0.56250000 </v>
   <v>       0.56250000       0.56250000       0.56250000 </v>
   <v>       0.06250000       0.31250000       0.31250000 </v>
   <v>       0.56250000       0.31250000       0.31250000 </v>
   <v>       0.06250000       0.81250000       0.31250000 </v>
   <v>       0.56250000       0.81250000       0.31250000 </v>
   <v>       0.06250000       0.31250000       0.81250000 </v>
   <v>       0.56250000       0.31250000       0.81250000 </v>
   <v>       0.06250000       0.81250000       0.81250000 </v>
   <v>       0.56250000       0.81250000       0.81250000 </v>
   <v>       0.31250000       0.06250000       0.31250000 </v>
   <v>       0.81250000       0.06250000       0.31250000 </v>
   <v>       0.31250000       0.56250000       0.31250000 </v>
   <v>       0.81250000       0.56250000       0.31250000 </v>
   <v>       0.31250000       0.06250000       0.81250000 </v>
   <v>       0.81250000       0.06250000       0.81250000 </v>
   <v>       0.31250000       0.56250000       0.81250000 </v>
   <v>       0.81250000       0.56250000       0.81250000 </v>
   <v>       0.31250000       0.31250000       0.06250000 </v>
   <v>       0.81250000       0.31250000       0.06250000 </v>
   <v>       0.31250000       0.81250000       0.06250000 </v>
   <v>       0.81250000       0.81250000       0.06250000 </v>
   <v>       0.31250000       0.31250000       0.56250000 </v>
   <v>       0.81250000       0.31250000       0.56250000 </v>
   <v>       0.31250000       0.81250000       0.56250000 </v>
   <v>       0.81250000       0.81250000       0.56250000 </v>
  </varray>
 </structure>
 <calculation>
  <scstep>
   <time name="dav">    4.14    4.15</time>
   <time name="total">    4.40    4.41</time>
   <energy>
    <i name="alphaZ">    105.52440745 </i>
    <i name="ewald">  -7265.47057384 </i>
    <i name="hartreedc">   -361.71307237 </i>
    <i name="XCdc">   -597.75714164 </i>
    <i name="pawpsdc">   5639.92317535 </i>
    <i name="pawaedc">  -4513.95313856 </i>
    <i name="eentropy">     -0.00016728 </i>
    <i name="bandstr">    856.48988391 </i>
    <i name="atom">   6596.14994790 </i>
    <i name="e_fr_energy">    459.19332093 </i>
    <i name="e_wo_entrp">    459.19348820 </i>
    <i name="e_0_energy">    459.19340457 </i>
   </energy>
  </scstep>
  <scstep>
   <time name="dav">    4.72    4.73</time>
   <time name="total">    4.72    4.74</time>
   <energy>
    <i name="e_fr_energy">   -299.95890442 </i>
    <i name="e_wo_entrp">   -299.95890442 </i>
    <i name="e_0_energy">   -299.95890442 </i>
   </energy>
  </scstep>
  <scstep>
   <time name="dav">    4.80    4.82</time>
   <time name="total">    4.81    4.82</time>
   <energy>
    <i name="e_fr_energy">   -351.01848575 </i>
    <i name="e_wo_entrp">   -351.01848575 </i>
    <i name="e_0_energy">   -351.01848575 </i>
   </energy>
  </scstep>
  <scstep>
   <time name="dav">    4.81    4.83</time>
   <time name="total">    4.82    4.83</time>
   <energy>
    <i name="e_fr_energy">   -352.27457180 </i>
    <i name="e_wo_entrp">   -352.27457180 </i>
    <i name="e_0_energy">   -352.27457180 </i>
   </energy>
  </scstep>
  <scstep>
   <time name="dav">    4.75    4.76</time>
   <time name="total">    5.04    5.06</time>
   <energy>
    <i name="e_fr_energy">   -352.31328801 </i>
    <i name="e_wo_entrp">   -352.31328801 </i>
    <i name="e_0_energy">   -352.31328801 </i>
   </energy>
  </scstep>
  <scstep>
   <time name="dav">    4.60    4.61</time>
   <time name="total">    5.15    5.17</time>
   <energy>
    <i name="e_fr_energy">   -348.58492700 </i>
    <i name="e_wo_entrp">   -348.58492700 </i>
    <i name="e_0_energy">   -348.58492700 </i>
   </energy>
  </scstep>
  <scstep>
   <time name="dav">    4.54    4.55</time>
   <time name="total">    5.09    5.12</time>
   <energy>
    <i name="e_fr_energy">   -346.87207776 </i>
    <i name="e_wo_entrp">   -346.87207776 </i>
    <i name="e_0_energy">   -346.87207776 </i>
   </energy>
  </scstep>
  <scstep>
   <time name="dav">    4.70    4.71</time>
   <time name="total">    5.25    5.27</time>
   <energy>
    <i name="e_fr_energy">   -346.89834537 </i>
    <i name="e_wo_entrp">   -346.89834537 </i>
    <i name="e_0_energy">   -346.89834537 </i>
   </energy>
  </scstep>
  <scstep>
   <time name="dav">    4.77    4.78</time>
   <time name="total">    5.32    5.34</time>
   <energy>
    <i name="e_fr_energy">   -346.90504708 </i>
    <i name="e_wo_entrp">   -346.90504708 </i>
    <i name="e_0_energy">   -346.90504708 </i>
   </energy>
  </scstep>
  <scstep>
   <time name="dav">    4.47    4.49</time>
   <time name="total">    5.03    5.05</time>
   <energy>
    <i name="e_fr_energy">   -346.90710647 </i>
    <i name="e_wo_entrp">   -346.90710647 </i>
    <i name="e_0_energy">   -346.90710647 </i>
   </energy>
  </scstep>
  <scstep>
   <time name="dav">    4.75    4.77</time>
   <time name="total">    5.31    5.33</time>
   <energy>
    <i name="e_fr_energy">   -346.90708299 </i>
    <i name="e_wo_entrp">   -346.90708299 </i>
    <i name="e_0_energy">   -346.90708299 </i>
   </energy>
  </scstep>
  <scstep>
   <time name="dav">    4.60    4.61</time>
   <time name="total">    5.15    5.17</time>
   <energy>
    <i name="e_fr_energy">   -346.90709807 </i>
    <i name="e_wo_entrp">   -346.90709807 </i>
    <i name="e_0_energy">   -346.90709807 </i>
   </energy>
  </scstep>
  <scstep>
   <time name="dav">    4.63    4.64</time>
   <time name="total">    5.19    5.21</time>
   <energy>
    <i name="e_fr_energy">   -346.90709830 </i>
    <i name="e_wo_entrp">   -346.90709830 </i>
    <i name="e_0_energy">   -346.90709830 </i>
   </energy>
  </scstep>
  <scstep>
   <time name="dav">    4.82    4.83</time>
   <time name="total">    5.38    5.41</time>
   <energy>
    <i name="e_fr_energy">   -346.90709886 </i>
    <i name="e_wo_entrp">   -346.90709886 </i>
    <i name="e_0_energy">   -346.90709886 </i>
   </energy>
  </scstep>
  <scstep>
   <time name="dav">    4.01    4.01</time>
   <time name="total">    4.56    4.57</time>
   <energy>
    <i name="e_fr_energy">   -346.90709860 </i>
    <i name="e_wo_entrp">   -346.90709860 </i>
    <i name="e_0_energy">   -346.90709860 </i>
   </energy>
  </scstep>
  <scstep>
   <time name="dav">    3.19    3.19</time>
   <time name="total">    3.75    3.76</time>
   <energy>
    <i name="e_fr_energy">   -346.90709868 </i>
    <i name="e_wo_entrp">   -346.90709868 </i>
    <i name="e_0_energy">   -346.90709868 </i>
   </energy>
  </scstep>
  <scstep>
   <time name="dav">    3.19    3.19</time>
   <time name="total">    3.45    3.46</time>
   <energy>
    <i name="alphaZ">    105.52440745 </i>
    <i name="ewald">  -7265.47057384 </i>
    <i name="hartreedc">   -485.14399354 </i>
    <i name="XCdc">   -577.61229829 </i>
    <i name="pawpsdc">  27883.39733366 </i>
    <i name="pawaedc"> -26764.11524768 </i>
    <i name="eentropy">      0.00000000 </i>
    <i name="bandstr">    160.36332567 </i>
    <i name="atom">   6596.14994790 </i>
    <i name="e_fr_energy">   -346.90709867 </i>
    <i name="e_wo_entrp">   -346.90709867 </i>
    <i name="e_0_energy">   -346.90709867 </i>
   </energy>
  </scstep>
  <structure>
   <crystal>
    <varray name="basis" >
     <v>      10.93252578       0.00000000       0.00000000 </v>
     <v>       0.00000000      10.93252578       0.00000000 </v>
     <v>       0.00000000       0.00000000      10.93252578 </v>
    </varray>
    <i name="volume">   1306.65679237 </i>
    <varray name="rec_basis" >
     <v>       0.09147017       0.00000000       0.00000000 </v>
     <v>       0.00000000       0.09147017       0.00000000 </v>
     <v>       0.00000000       0.00000000       0.09147017 </v>
    </varray>
   </crystal>
   <varray name="positions" >
    <v>       0.44024411       0.43750000       0.43750000 </v>
    <v>       0.93750000       0.43750000       0.43750000 </v>
    <v>       0.43750000       0.93750000       0.43750000 </v>
    <v>       0.93750000       0.93750000       0.43750000 </v>
    <v>       0.43750000       0.43750000       0.93750000 </v>
    <v>       0.93750000       0.43750000       0.93750000 </v>
    <v>       0.43750000       0.93750000       0.93750000 </v>
    <v>       0.93750000       0.93750000       0.93750000 </v>
    <v>       0.43750000       0.18750000       0.18750000 </v>
    <v>       0.93750000       0.18750000       0.18750000 </v>
    <v>       0.43750000       0.68750000       0.18750000 </v>
    <v>       0.93750000       0.68750000       0.18750000 </v>
    <v>       0.43750000       0.18750000       0.68750000 </v>
    <v>       0.93750000       0.18750000       0.68750000 </v>
    <v>       0.43750000       0.68750000       0.68750000 </v>
    <v>       0.93750000       0.68750000       0.68750000 </v>
    <v>       0.18750000       0.43750000       0.18750000 </v>
    <v>       0.68750000       0.43750000       0.18750000 </v>
    <v>       0.18750000       0.93750000       0.18750000 </v>
    <v>       0.68750000       0.93750000       0.18750000 </v>
    <v>       0.18750000       0.43750000       0.68750000 </v>
    <v>       0.68750000       0.43750000       0.68750000 </v>
    <v>       0.18750000       0.93750000       0.68750000 </v>
    <v>       0.68750000       0.93750000       0.68750000 </v>
    <v>       0.18750000       0.18750000       0.43750000 </v>
    <v>       0.68750000       0.18750000       0.43750000 </v>
    <v>       0.18750000       0.68750000       0.43750000 </v>
    <v>       0.68750000       0.68750000       0.43750000 </v>
    <v>       0.18750000       0.18750000       0.93750000 </v>
    <v>       0.68750000       0.18750000       0.93750000 </v>
    <v>       0.18750000       0.68750000       0.93750000 </v>
    <v>       0.68750000       0.68750000       0.93750000 </v>
    <v>       0.06250000       0.06250000       0.06250000 </v>
    <v>       0.56524411       0.06250000       0.06250000 </v>
    <v>       0.06250000       0.56250000       0.06250000 </v>
    <v>       0.56250000       0.56250000       0.06250000 </v>
    <v>       0.06250000       0.06250000       0.56250000 </v>
    <v>       0.56250000       0.06250000       0.56250000 </v>
    <v>       0.06250000       0.56250000       0.56250000 </v>
    <v>       0.56250000       0.56250000       0.56250000 </v>
    <v>       0.06250000       0.31250000       0.31250000 </v>
    <v>       0.56250000       0.31250000       0.31250000 </v>
    <v>       0.06250000       0.81250000       0.31250000 </v>
    <v>       0.56250000       0.81250000       0.31250000 </v>
    <v>       0.06250000       0.31250000       0.81250000 </v>
    <v>       0.56250000       0.31250000       0.81250000 </v>
    <v>       0.06250000       0.81250000       0.81250000 </v>
    <v>       0.56250000       0.81250000       0.81250000 </v>
    <v>       0.31250000       0.06250000       0.31250000 </v>
    <v>       0.81250000       0.06250000       0.31250000 </v>
    <v>       0.31250000       0.56250000       0.31250000 </v>
    <v>       0.81250000       0.56250000       0.31250000 </v>
    <v>       0.31250000       0.06250000       0.81250000 </v>
    <v>       0.81250000       0.06250000       0.81250000 </v>
    <v>       0.31250000       0.56250000       0.81250000 </v>
    <v>       0.81250000       0.56250000       0.81250000 </v>
    <v>       0.31250000       0.31250000       0.06250000 </v>
    <v>       0.81250000       0.31250000       0.06250000 </v>
    <v>       0.31250000       0.81250000       0.06250000 </v>
    <v>       0.81250000       0.81250000       0.06250000 </v>
    <v>       0.31250000       0.31250000       0.56250000 </v>
    <v>       0.81250000       0.31250000       0.56250000 </v>
    <v>       0.31250000       0.81250000       0.56250000 </v>
    <v>       0.81250000       0.81250000       0.56250000 </v>
   </varray>
  </structure>
  <varray name="forces" >
   <v>      -0.38092930       0.00067990       0.00067990 </v>
   <v>       0.00001570       0.00074602       0.00074602 </v>
   <v>      -0.00011916       0.00124877       0.00089025 </v>
   <v>       0.00049037       0.00070329       0.00064224 </v>
   <v>      -0.00011916       0.00089025       0.00124877 </v>
   <v>       0.00049037       0.00064224       0.00070329 </v>
   <v>       0.08156340       0.06095614       0.06095614 </v>
   <v>       0.00030212       0.00090415       0.00090415 </v>
   <v>       0.08023276      -0.05821350      -0.05821350 </v>
   <v>      -0.00030258      -0.00067832      -0.00067832 </v>
   <v>      -0.01420933       0.00178191      -0.00391770 </v>
   <v>       0.00065977      -0.00040523      -0.00093248 </v>
   <v>      -0.01420933      -0.00391770       0.00178191 </v>
   <v>       0.00065977      -0.00093248      -0.00040523 </v>
   <v>      -0.00674475      -0.00345044      -0.00345044 </v>
   <v>      -0.00056172      -0.00097118      -0.00097118 </v>
   <v>       0.00626712      -0.00327367       0.00620791 </v>
   <v>       0.00432189      -0.00369880      -0.00448642 </v>
   <v>       0.00074463      -0.00113775      -0.00095079 </v>
   <v>       0.09682997      -0.06634813       0.06797894 </v>
   <v>       0.00511847       0.00193401      -0.00481107 </v>
   <v>       0.01201474       0.00208428       0.00638481 </v>
   <v>       0.00163374      -0.00041992       0.00245944 </v>
   <v>      -0.00045675      -0.00098229      -0.00092459 </v>
   <v>       0.00626712       0.00620791      -0.00327367 </v>
   <v>       0.00432189      -0.00448642      -0.00369880 </v>
   <v>       0.00511847      -0.00481107       0.00193401 </v>
   <v>       0.01201474       0.00638481       0.00208428 </v>
   <v>       0.00074463      -0.00095079      -0.00113775 </v>
   <v>       0.09682997       0.06797894      -0.06634813 </v>
   <v>       0.00163374       0.00245944      -0.00041992 </v>
   <v>      -0.00045675      -0.00092459      -0.00098229 </v>
   <v>       0.00001274       0.00075415       0.00075415 </v>
   <v>      -0.38100583       0.00068248       0.00068248 </v>
   <v>       0.00043803       0.00065793       0.00059764 </v>
   <v>      -0.00015468       0.00120939       0.00092398 </v>
   <v>       0.00043803       0.00059764       0.00065793 </v>
   <v>      -0.00015468       0.00092398       0.00120939 </v>
   <v>       0.00029792       0.00090943       0.00090943 </v>
   <v>       0.08421694       0.06611293       0.06611293 </v>
   <v>      -0.00027671      -0.00067548      -0.00067548 </v>
   <v>       0.08299604      -0.06342128      -0.06342128 </v>
   <v>       0.00059413      -0.00037444      -0.00088822 </v>
   <v>      -0.01435735       0.00184188      -0.00397851 </v>
   <v>       0.00059413      -0.00088822      -0.00037444 </v>
   <v>      -0.01435735      -0.00397851       0.00184188 </v>
   <v>      -0.00053395      -0.00098889      -0.00098889 </v>
   <v>      -0.00656423      -0.00334898      -0.00334898 </v>
   <v>       0.00421739      -0.00355619      -0.00430273 </v>
   <v>       0.00646277      -0.00340700       0.00640135 </v>
   <v>       0.09408759      -0.06118231       0.06280056 </v>
   <v>       0.00074124      -0.00113618      -0.00094408 </v>
   <v>       0.01178346       0.00199602       0.00622550 </v>
   <v>       0.00526127       0.00200525      -0.00493712 </v>
   <v>      -0.00041323      -0.00101545      -0.00096982 </v>
   <v>       0.00168466      -0.00048091       0.00248933 </v>
   <v>       0.00421739      -0.00430273      -0.00355619 </v>
   <v>       0.00646277       0.00640135      -0.00340700 </v>
   <v>       0.01178346       0.00622550       0.00199602 </v>
   <v>       0.00526127      -0.00493712       0.00200525 </v>
   <v>       0.09408759       0.06280056      -0.06118231 </v>
   <v>       0.00074124      -0.00094408      -0.00113618 </v>
   <v>      -0.00041323      -0.00096982      -0.00101545 </v>
   <v>       0.00168466       0.00248933      -0.00048091 </v>
  </varray>
  <varray name="stress" >
   <v>      -0.01740742       0.00013883       0.00013883 </v>
   <v>       0.00013884       0.02113834      -0.00024917 </v>
   <v>       0.00013884      -0.00024917       0.02113834 </v>
  </varray>
  <energy>
   <i name="e_fr_energy">   -346.90709867 </i>
   <i name="e_wo_entrp">   -346.90709867 </i>
   <i name="e_0_energy">      0.00000000 </i>
  </energy>
  <time name="totalsc">   92.25   92.59</time>
  <eigenvalues>
   <array>
    <dimension dim="1">band</dimension>
    <dimension dim="2">kpoint</dimension>
    <dimension dim="3">spin</dimension>
    <field>eigene</field>
    <field>occ</field>
    <set>
     <set comment="spin 1">
      <set comment="kpoint 1">
       <r>   -5.9932    1.0000 </r>
       <r>   -5.4649    1.0000 </r>
       <r>   -5.4647    1.0000 </r>
       <r>   -5.4646    1.0000 </r>
       <r>   -4.9659    1.0000 </r>
       <r>   -4.9654    1.0000 </r>
       <r>   -4.9653    1.0000 </r>
       <r>   -4.5322    1.0000 </r>
       <r>   -4.4329    1.0000 </r>
       <r>   -4.4324    1.0000 </r>
       <r>   -4.4321    1.0000 </r>
       <r>   -4.0248    1.0000 </r>
       <r>   -4.0184    1.0000 </r>
       <r>   -4.0164    1.0000 </r>
       <r>   -4.0163    1.0000 </r>
       <r>   -4.0145    1.0000 </r>
       <r>   -4.0082    1.0000 </r>
       <r>   -3.8266    1.0000 </r>
       <r>   -3.8243    1.0000 </r>
       <r>   -3.8221    1.0000 </r>
       <r>   -3.3310    1.0000 </r>
       <r>   -3.3283    1.0000 </r>
       <r>   -3.3257    1.0000 </r>
       <r>   -2.9638    1.0000 </r>
       <r>   -2.9592    1.0000 </r>
       <r>   -2.9544    1.0000 </r>
       <r>   -2.7975    1.0000 </r>
       <r>   -2.7933    1.0000 </r>
       <r>   -2.7909    1.0000 </r>
       <r>   -2.7909    1.0000 </r>
       <r>   -2.7885    1.0000 </r>
       <r>   -2.7840    1.0000 </r>
       <r>   -1.2551    1.0000 </r>
       <r>   -1.2520    1.0000 </r>
       <r>   -1.2488    1.0000 </r>
       <r>   -1.2486    1.0000 </r>
       <r>   -1.2457    1.0000 </r>
       <r>   -1.2434    1.0000 </r>
       <r>   -1.1565    1.0000 </r>
       <r>   -1.1509    1.0000 </r>
       <r>   -1.1455    1.0000 </r>
       <r>   -1.0352    1.0000 </r>
       <r>   -1.0329    1.0000 </r>
       <r>   -1.0298    1.0000 </r>
       <r>   -0.9532    1.0000 </r>
       <r>   -0.9468    1.0000 </r>
       <r>   -0.9401    1.0000 </r>
       <r>   -0.2445    1.0000 </r>
       <r>   -0.1682    1.0000 </r>
       <r>   -0.1641    1.0000 </r>
       <r>   -0.1602    1.0000 </r>
       <r>   -0.1601    1.0000 </r>
       <r>   -0.1563    1.0000 </r>
       <r>   -0.1518    1.0000 </r>
       <r>    0.7116    1.0000 </r>
       <r>    0.7142    1.0000 </r>
       <r>    0.7170    1.0000 </r>
       <r>    1.0454    1.0000 </r>
       <r>    1.0470    1.0000 </r>
       <r>    1.0488    1.0000 </r>
       <r>    1.6546    1.0000 </r>
       <r>    1.6557    1.0000 </r>
       <r>    1.6568    1.0000 </r>
       <r>    1.6570    1.0000 </r>
       <r>    1.6583    1.0000 </r>
       <r>    1.6594    1.0000 </r>
       <r>    1.7129    1.0000 </r>
       <r>    1.7158    1.0000 </r>
       <r>    1.7192    1.0000 </r>
       <r>    2.2652    1.0000 </r>
       <r>    2.2678    1.0000 </r>
       <r>    2.2701    1.0000 </r>
       <r>    2.3664    1.0000 </r>
       <r>    2.3680    1.0000 </r>
       <r>    2.3710    1.0000 </r>
       <r>    2.3711    1.0000 </r>
       <r>    2.3738    1.0000 </r>
       <r>    2.3757    1.0000 </r>
       <r>    2.4235    1.0000 </r>
       <r>    2.4250    1.0000 </r>
       <r>    2.4262    1.0000 </r>
       <r>    2.7322    1.0000 </r>
       <r>    2.7341    1.0000 </r>
       <r>    2.7349    1.0000 </r>
       <r>    2.7350    1.0000 </r>
       <r>    2.7358    1.0000 </r>
       <r>    2.7376    1.0000 </r>
       <r>    2.9990    1.0000 </r>
       <r>    2.9993    1.0000 </r>
       <r>    2.9995    1.0000 </r>
       <r>    3.0120    1.0000 </r>
       <r>    3.0133    1.0000 </r>
       <r>    3.0151    1.0000 </r>
       <r>    3.3607    1.0000 </r>
       <r>    3.3621    1.0000 </r>
       <r>    3.3625    1.0000 </r>
       <r>    3.3818    1.0000 </r>
       <r>    3.3843    1.0000 </r>
       <r>    3.3876    1.0000 </r>
       <r>    3.4643    1.0000 </r>
       <r>    3.4669    1.0000 </r>
       <r>    3.4688    1.0000 </r>
       <r>    3.7348    1.0000 </r>
       <r>    3.7401    1.0000 </r>
       <r>    3.7406    1.0000 </r>
       <r>    3.7413    1.0000 </r>
       <r>    3.7424    1.0000 </r>
       <r>    3.7480    1.0000 </r>
       <r>    3.7778    1.0000 </r>
       <r>    3.7816    1.0000 </r>
       <r>    3.7830    1.0000 </r>
       <r>    4.0406    1.0000 </r>
       <r>    4.0977    1.0000 </r>
       <r>    4.0979    1.0000 </r>
       <r>    4.0980    1.0000 </r>
       <r>    4.3381    1.0000 </r>
       <r>    4.3410    1.0000 </r>
       <r>    4.3441    1.0000 </r>
       <r>    4.4011    1.0000 </r>
       <r>    4.4056    1.0000 </r>
       <r>    4.4107    1.0000 </r>
       <r>    4.5628    1.0000 </r>
       <r>    4.5630    1.0000 </r>
       <r>    4.8659    1.0000 </r>
       <r>    4.8701    1.0000 </r>
       <r>    4.8741    1.0000 </r>
       <r>    5.3496    1.0000 </r>
       <r>    5.3498    1.0000 </r>
       <r>    6.5629    0.0000 </r>
       <r>    6.5635    0.0000 </r>
       <r>    6.5638    0.0000 </r>
       <r>    7.0013    0.0000 </r>
       <r>    7.0045    0.0000 </r>
       <r>    7.0076    0.0000 </r>
       <r>    7.2337    0.0000 </r>
       <r>    7.4885    0.0000 </r>
       <r>    7.4907    0.0000 </r>
       <r>    7.4926    0.0000 </r>
       <r>    7.6166    0.0000 </r>
       <r>    7.6198    0.0000 </r>
       <r>    7.6227    0.0000 </r>
       <r>    7.7794    0.0000 </r>
       <r>    7.7799    0.0000 </r>
       <r>    7.7802    0.0000 </r>
       <r>    7.8011    0.0000 </r>
       <r>    7.8012    0.0000 </r>
       <r>    7.8013    0.0000 </r>
       <r>    8.0254    0.0000 </r>
       <r>    8.0275    0.0000 </r>
       <r>    8.0305    0.0000 </r>
       <r>    8.0307    0.0000 </r>
       <r>    8.0338    0.0000 </r>
       <r>    8.0354    0.0000 </r>
       <r>    8.0814    0.0000 </r>
       <r>    8.2928    0.0000 </r>
       <r>    8.2950    0.0000 </r>
       <r>    8.2972    0.0000 </r>
       <r>    8.4957    0.0000 </r>
       <r>    8.5004    0.0000 </r>
       <r>    8.5020    0.0000 </r>
       <r>    8.5039    0.0000 </r>
       <r>    8.5102    0.0000 </r>
       <r>    8.5232    0.0000 </r>
       <r>    8.5494    0.0000 </r>
      </set>
      <set comment="kpoint 2">
       <r>   -5.9932    1.0000 </r>
       <r>   -5.4679    1.0000 </r>
       <r>   -5.4646    1.0000 </r>
       <r>   -5.4617    1.0000 </r>
       <r>   -4.9683    1.0000 </r>
       <r>   -4.9654    1.0000 </r>
       <r>   -4.9629    1.0000 </r>
       <r>   -4.5324    1.0000 </r>
       <r>   -4.4354    1.0000 </r>
       <r>   -4.4324    1.0000 </r>
       <r>   -4.4295    1.0000 </r>
       <r>   -4.0234    1.0000 </r>
       <r>   -4.0170    1.0000 </r>
       <r>   -4.0165    1.0000 </r>
       <r>   -4.0165    1.0000 </r>
       <r>   -4.0157    1.0000 </r>
       <r>   -4.0097    1.0000 </r>
       <r>   -3.8243    1.0000 </r>
       <r>   -3.8243    1.0000 </r>
       <r>   -3.8241    1.0000 </r>
       <r>   -3.3297    1.0000 </r>
       <r>   -3.3283    1.0000 </r>
       <r>   -3.3271    1.0000 </r>
       <r>   -2.9595    1.0000 </r>
       <r>   -2.9592    1.0000 </r>
       <r>   -2.9590    1.0000 </r>
       <r>   -2.7979    1.0000 </r>
       <r>   -2.7915    1.0000 </r>
       <r>   -2.7909    1.0000 </r>
       <r>   -2.7908    1.0000 </r>
       <r>   -2.7903    1.0000 </r>
       <r>   -2.7835    1.0000 </r>
       <r>   -1.2560    1.0000 </r>
       <r>   -1.2494    1.0000 </r>
       <r>   -1.2491    1.0000 </r>
       <r>   -1.2489    1.0000 </r>
       <r>   -1.2481    1.0000 </r>
       <r>   -1.2424    1.0000 </r>
       <r>   -1.1510    1.0000 </r>
       <r>   -1.1509    1.0000 </r>
       <r>   -1.1506    1.0000 </r>
       <r>   -1.0328    1.0000 </r>
       <r>   -1.0328    1.0000 </r>
       <r>   -1.0323    1.0000 </r>
       <r>   -0.9520    1.0000 </r>
       <r>   -0.9469    1.0000 </r>
       <r>   -0.9414    1.0000 </r>
       <r>   -0.2446    1.0000 </r>
       <r>   -0.1649    1.0000 </r>
       <r>   -0.1610    1.0000 </r>
       <r>   -0.1602    1.0000 </r>
       <r>   -0.1601    1.0000 </r>
       <r>   -0.1594    1.0000 </r>
       <r>   -0.1550    1.0000 </r>
       <r>    0.7132    1.0000 </r>
       <r>    0.7143    1.0000 </r>
       <r>    0.7153    1.0000 </r>
       <r>    1.0470    1.0000 </r>
       <r>    1.0471    1.0000 </r>
       <r>    1.0473    1.0000 </r>
       <r>    1.6532    1.0000 </r>
       <r>    1.6546    1.0000 </r>
       <r>    1.6570    1.0000 </r>
       <r>    1.6571    1.0000 </r>
       <r>    1.6592    1.0000 </r>
       <r>    1.6602    1.0000 </r>
       <r>    1.7142    1.0000 </r>
       <r>    1.7160    1.0000 </r>
       <r>    1.7182    1.0000 </r>
       <r>    2.2662    1.0000 </r>
       <r>    2.2678    1.0000 </r>
       <r>    2.2692    1.0000 </r>
       <r>    2.3659    1.0000 </r>
       <r>    2.3669    1.0000 </r>
       <r>    2.3709    1.0000 </r>
       <r>    2.3710    1.0000 </r>
       <r>    2.3747    1.0000 </r>
       <r>    2.3748    1.0000 </r>
       <r>    2.4222    1.0000 </r>
       <r>    2.4258    1.0000 </r>
       <r>    2.4279    1.0000 </r>
       <r>    2.7307    1.0000 </r>
       <r>    2.7344    1.0000 </r>
       <r>    2.7349    1.0000 </r>
       <r>    2.7349    1.0000 </r>
       <r>    2.7356    1.0000 </r>
       <r>    2.7394    1.0000 </r>
       <r>    2.9974    1.0000 </r>
       <r>    2.9993    1.0000 </r>
       <r>    3.0009    1.0000 </r>
       <r>    3.0132    1.0000 </r>
       <r>    3.0136    1.0000 </r>
       <r>    3.0138    1.0000 </r>
       <r>    3.3595    1.0000 </r>
       <r>    3.3620    1.0000 </r>
       <r>    3.3638    1.0000 </r>
       <r>    3.3827    1.0000 </r>
       <r>    3.3843    1.0000 </r>
       <r>    3.3867    1.0000 </r>
       <r>    3.4655    1.0000 </r>
       <r>    3.4669    1.0000 </r>
       <r>    3.4675    1.0000 </r>
       <r>    3.7354    1.0000 </r>
       <r>    3.7407    1.0000 </r>
       <r>    3.7413    1.0000 </r>
       <r>    3.7414    1.0000 </r>
       <r>    3.7419    1.0000 </r>
       <r>    3.7469    1.0000 </r>
       <r>    3.7792    1.0000 </r>
       <r>    3.7814    1.0000 </r>
       <r>    3.7818    1.0000 </r>
       <r>    4.0406    1.0000 </r>
       <r>    4.0950    1.0000 </r>
       <r>    4.0981    1.0000 </r>
       <r>    4.1005    1.0000 </r>
       <r>    4.3396    1.0000 </r>
       <r>    4.3411    1.0000 </r>
       <r>    4.3425    1.0000 </r>
       <r>    4.4029    1.0000 </r>
       <r>    4.4056    1.0000 </r>
       <r>    4.4087    1.0000 </r>
       <r>    4.5629    1.0000 </r>
       <r>    4.5630    1.0000 </r>
       <r>    4.8677    1.0000 </r>
       <r>    4.8701    1.0000 </r>
       <r>    4.8724    1.0000 </r>
       <r>    5.3497    1.0000 </r>
       <r>    5.3498    1.0000 </r>
       <r>    6.5628    0.0000 </r>
       <r>    6.5634    0.0000 </r>
       <r>    6.5639    0.0000 </r>
       <r>    7.0008    0.0000 </r>
       <r>    7.0045    0.0000 </r>
       <r>    7.0080    0.0000 </r>
       <r>    7.2337    0.0000 </r>
       <r>    7.4878    0.0000 </r>
       <r>    7.4908    0.0000 </r>
       <r>    7.4936    0.0000 </r>
       <r>    7.6195    0.0000 </r>
       <r>    7.6197    0.0000 </r>
       <r>    7.6197    0.0000 </r>
       <r>    7.7765    0.0000 </r>
       <r>    7.7796    0.0000 </r>
       <r>    7.7820    0.0000 </r>
       <r>    7.7990    0.0000 </r>
       <r>    7.8014    0.0000 </r>
       <r>    7.8044    0.0000 </r>
       <r>    8.0273    0.0000 </r>
       <r>    8.0274    0.0000 </r>
       <r>    8.0306    0.0000 </r>
       <r>    8.0307    0.0000 </r>
       <r>    8.0330    0.0000 </r>
       <r>    8.0340    0.0000 </r>
       <r>    8.0815    0.0000 </r>
       <r>    8.2922    0.0000 </r>
       <r>    8.2949    0.0000 </r>
       <r>    8.2977    0.0000 </r>
       <r>    8.4985    0.0000 </r>
       <r>    8.5009    0.0000 </r>
       <r>    8.5027    0.0000 </r>
       <r>    8.5040    0.0000 </r>
       <r>    8.5074    0.0000 </r>
       <r>    8.5264    0.0000 </r>
       <r>    8.5435    0.0000 </r>
      </set>
      <set comment="kpoint 3">
       <r>   -5.9932    1.0000 </r>
       <r>   -5.4672    1.0000 </r>
       <r>   -5.4648    1.0000 </r>
       <r>   -5.4623    1.0000 </r>
       <r>   -4.9681    1.0000 </r>
       <r>   -4.9655    1.0000 </r>
       <r>   -4.9630    1.0000 </r>
       <r>   -4.5322    1.0000 </r>
       <r>   -4.4351    1.0000 </r>
       <r>   -4.4324    1.0000 </r>
       <r>   -4.4299    1.0000 </r>
       <r>   -4.0241    1.0000 </r>
       <r>   -4.0190    1.0000 </r>
       <r>   -4.0178    1.0000 </r>
       <r>   -4.0149    1.0000 </r>
       <r>   -4.0138    1.0000 </r>
       <r>   -4.0091    1.0000 </r>
       <r>   -3.8292    1.0000 </r>
       <r>   -3.8244    1.0000 </r>
       <r>   -3.8193    1.0000 </r>
       <r>   -3.3324    1.0000 </r>
       <r>   -3.3283    1.0000 </r>
       <r>   -3.3243    1.0000 </r>
       <r>   -2.9641    1.0000 </r>
       <r>   -2.9591    1.0000 </r>
       <r>   -2.9544    1.0000 </r>
       <r>   -2.7979    1.0000 </r>
       <r>   -2.7934    1.0000 </r>
       <r>   -2.7923    1.0000 </r>
       <r>   -2.7894    1.0000 </r>
       <r>   -2.7883    1.0000 </r>
       <r>   -2.7835    1.0000 </r>
       <r>   -1.2553    1.0000 </r>
       <r>   -1.2524    1.0000 </r>
       <r>   -1.2514    1.0000 </r>
       <r>   -1.2462    1.0000 </r>
       <r>   -1.2454    1.0000 </r>
       <r>   -1.2428    1.0000 </r>
       <r>   -1.1552    1.0000 </r>
       <r>   -1.1511    1.0000 </r>
       <r>   -1.1465    1.0000 </r>
       <r>   -1.0362    1.0000 </r>
       <r>   -1.0328    1.0000 </r>
       <r>   -1.0294    1.0000 </r>
       <r>   -0.9533    1.0000 </r>
       <r>   -0.9468    1.0000 </r>
       <r>   -0.9400    1.0000 </r>
       <r>   -0.2446    1.0000 </r>
       <r>   -0.1674    1.0000 </r>
       <r>   -0.1651    1.0000 </r>
       <r>   -0.1624    1.0000 </r>
       <r>   -0.1579    1.0000 </r>
       <r>   -0.1551    1.0000 </r>
       <r>   -0.1528    1.0000 </r>
       <r>    0.7090    1.0000 </r>
       <r>    0.7143    1.0000 </r>
       <r>    0.7196    1.0000 </r>
       <r>    1.0449    1.0000 </r>
       <r>    1.0471    1.0000 </r>
       <r>    1.0493    1.0000 </r>
       <r>    1.6534    1.0000 </r>
       <r>    1.6556    1.0000 </r>
       <r>    1.6569    1.0000 </r>
       <r>    1.6572    1.0000 </r>
       <r>    1.6584    1.0000 </r>
       <r>    1.6605    1.0000 </r>
       <r>    1.7133    1.0000 </r>
       <r>    1.7159    1.0000 </r>
       <r>    1.7190    1.0000 </r>
       <r>    2.2655    1.0000 </r>
       <r>    2.2677    1.0000 </r>
       <r>    2.2699    1.0000 </r>
       <r>    2.3665    1.0000 </r>
       <r>    2.3680    1.0000 </r>
       <r>    2.3706    1.0000 </r>
       <r>    2.3711    1.0000 </r>
       <r>    2.3739    1.0000 </r>
       <r>    2.3752    1.0000 </r>
       <r>    2.4229    1.0000 </r>
       <r>    2.4248    1.0000 </r>
       <r>    2.4269    1.0000 </r>
       <r>    2.7298    1.0000 </r>
       <r>    2.7326    1.0000 </r>
       <r>    2.7337    1.0000 </r>
       <r>    2.7362    1.0000 </r>
       <r>    2.7373    1.0000 </r>
       <r>    2.7400    1.0000 </r>
       <r>    2.9971    1.0000 </r>
       <r>    2.9993    1.0000 </r>
       <r>    3.0008    1.0000 </r>
       <r>    3.0115    1.0000 </r>
       <r>    3.0143    1.0000 </r>
       <r>    3.0154    1.0000 </r>
       <r>    3.3592    1.0000 </r>
       <r>    3.3620    1.0000 </r>
       <r>    3.3648    1.0000 </r>
       <r>    3.3795    1.0000 </r>
       <r>    3.3843    1.0000 </r>
       <r>    3.3890    1.0000 </r>
       <r>    3.4639    1.0000 </r>
       <r>    3.4666    1.0000 </r>
       <r>    3.4694    1.0000 </r>
       <r>    3.7335    1.0000 </r>
       <r>    3.7385    1.0000 </r>
       <r>    3.7407    1.0000 </r>
       <r>    3.7418    1.0000 </r>
       <r>    3.7441    1.0000 </r>
       <r>    3.7489    1.0000 </r>
       <r>    3.7775    1.0000 </r>
       <r>    3.7809    1.0000 </r>
       <r>    3.7839    1.0000 </r>
       <r>    4.0405    1.0000 </r>
       <r>    4.0957    1.0000 </r>
       <r>    4.0979    1.0000 </r>
       <r>    4.1005    1.0000 </r>
       <r>    4.3378    1.0000 </r>
       <r>    4.3410    1.0000 </r>
       <r>    4.3443    1.0000 </r>
       <r>    4.4003    1.0000 </r>
       <r>    4.4056    1.0000 </r>
       <r>    4.4117    1.0000 </r>
       <r>    4.5628    1.0000 </r>
       <r>    4.5629    1.0000 </r>
       <r>    4.8657    1.0000 </r>
       <r>    4.8701    1.0000 </r>
       <r>    4.8743    1.0000 </r>
       <r>    5.3496    1.0000 </r>
       <r>    5.3497    1.0000 </r>
       <r>    6.5596    0.0000 </r>
       <r>    6.5635    0.0000 </r>
       <r>    6.5672    0.0000 </r>
       <r>    7.0004    0.0000 </r>
       <r>    7.0045    0.0000 </r>
       <r>    7.0084    0.0000 </r>
       <r>    7.2337    0.0000 </r>
       <r>    7.4877    0.0000 </r>
       <r>    7.4908    0.0000 </r>
       <r>    7.4937    0.0000 </r>
       <r>    7.6151    0.0000 </r>
       <r>    7.6195    0.0000 </r>
       <r>    7.6240    0.0000 </r>
       <r>    7.7775    0.0000 </r>
       <r>    7.7801    0.0000 </r>
       <r>    7.7822    0.0000 </r>
       <r>    7.7978    0.0000 </r>
       <r>    7.8013    0.0000 </r>
       <r>    7.8041    0.0000 </r>
       <r>    8.0245    0.0000 </r>
       <r>    8.0267    0.0000 </r>
       <r>    8.0292    0.0000 </r>
       <r>    8.0319    0.0000 </r>
       <r>    8.0343    0.0000 </r>
       <r>    8.0360    0.0000 </r>
       <r>    8.0815    0.0000 </r>
       <r>    8.2927    0.0000 </r>
       <r>    8.2950    0.0000 </r>
       <r>    8.2971    0.0000 </r>
       <r>    8.4954    0.0000 </r>
       <r>    8.4975    0.0000 </r>
       <r>    8.5023    0.0000 </r>
       <r>    8.5045    0.0000 </r>
       <r>    8.5078    0.0000 </r>
       <r>    8.5216    0.0000 </r>
       <r>    8.5418    0.0000 </r>
      </set>
     </set>
    </set>
   </array>
  </eigenvalues>
  <separator name="orbital magnetization" >
   <v name="MAGDIPOLOUT">      0.00000000      0.00000000      0.00000000</v>
  </separator>
  <dos>
   <i name="efermi">      5.60056481 </i>
   <total>
    <array>
     <dimension dim="1">gridpoints</dimension>
     <dimension dim="2">spin</dimension>
     <field>energy</field>
     <field>total</field>
     <field>integrated</field>
     <set>
      <set comment="spin 1">
       <r>    -6.7203     0.0000     0.0000 </r>
       <r>    -6.6670     0.0000     0.0000 </r>
       <r>    -6.6136     0.0000     0.0000 </r>
       <r>    -6.5603     0.0000     0.0000 </r>
       <r>    -6.5070     0.0000     0.0000 </r>
       <r>    -6.4537     0.0000     0.0000 </r>
       <r>    -6.4004     0.0000     0.0000 </r>
       <r>    -6.3470     0.0000     0.0000 </r>
       <r>    -6.2937     0.0000     0.0000 </r>
       <r>    -6.2404     0.0000     0.0000 </r>
       <r>    -6.1871     0.0000     0.0000 </r>
       <r>    -6.1337     0.0013     0.0001 </r>
       <r>    -6.0804     0.2535     0.0136 </r>
       <r>    -6.0271     6.0677     0.3371 </r>
       <r>    -5.9738    20.2431     1.4165 </r>
       <r>    -5.9205    10.1969     1.9603 </r>
       <r>    -5.8671     0.7383     1.9996 </r>
       <r>    -5.8138     0.0068     2.0000 </r>
       <r>    -5.7605     0.0000     2.0000 </r>
       <r>    -5.7072     0.0000     2.0000 </r>
       <r>    -5.6538     0.0000     2.0000 </r>
       <r>    -5.6005     0.0071     2.0004 </r>
       <r>    -5.5472     1.1120     2.0597 </r>
       <r>    -5.4939    21.9971     3.2326 </r>
       <r>    -5.4406    61.6036     6.5175 </r>
       <r>    -5.3872    26.1969     7.9144 </r>
       <r>    -5.3339     1.5935     7.9993 </r>
       <r>    -5.2806     0.0123     8.0000 </r>
       <r>    -5.2273     0.0000     8.0000 </r>
       <r>    -5.1739     0.0000     8.0000 </r>
       <r>    -5.1206     0.0007     8.0000 </r>
       <r>    -5.0673     0.2267     8.0121 </r>
       <r>    -5.0140     9.3977     8.5132 </r>
       <r>    -4.9606    52.7848    11.3279 </r>
       <r>    -4.9073    44.4715    13.6992 </r>
       <r>    -4.8540     5.5493    13.9951 </r>
       <r>    -4.8007     0.0918    14.0000 </r>
       <r>    -4.7474     0.0002    14.0000 </r>
       <r>    -4.6940     0.0001    14.0000 </r>
       <r>    -4.6407     0.0403    14.0022 </r>
       <r>    -4.5874     2.1890    14.1189 </r>
       <r>    -4.5341    15.9855    14.9713 </r>
       <r>    -4.4807    26.2770    16.3724 </r>
       <r>    -4.4274    55.5677    19.3354 </r>
       <r>    -4.3741    44.3789    21.7018 </r>
       <r>    -4.3208     5.5009    21.9952 </r>
       <r>    -4.2675     0.0905    22.0000 </r>
       <r>    -4.2141     0.0002    22.0000 </r>
       <r>    -4.1608     0.0058    22.0003 </r>
       <r>    -4.1075     1.1944    22.0640 </r>
       <r>    -4.0542    31.4521    23.7411 </r>
       <r>    -4.0008   117.9749    30.0318 </r>
       <r>    -3.9475    68.4693    33.6828 </r>
       <r>    -3.8942     8.6274    34.1428 </r>
       <r>    -3.8409    33.3406    35.9206 </r>
       <r>    -3.7876    59.5961    39.0985 </r>
       <r>    -3.7342    16.2800    39.9666 </r>
       <r>    -3.6809     0.6241    39.9998 </r>
       <r>    -3.6276     0.0030    40.0000 </r>
       <r>    -3.5743     0.0000    40.0000 </r>
       <r>    -3.5209     0.0000    40.0000 </r>
       <r>    -3.4676     0.0048    40.0003 </r>
       <r>    -3.4143     0.8590    40.0461 </r>
       <r>    -3.3610    19.2564    41.0729 </r>
       <r>    -3.3076    60.9441    44.3226 </r>
       <r>    -3.2543    29.3888    45.8896 </r>
       <r>    -3.2010     2.0511    45.9990 </r>
       <r>    -3.1477     0.0184    46.0000 </r>
       <r>    -3.0944     0.0080    46.0004 </r>
       <r>    -3.0410     1.1865    46.0637 </r>
       <r>    -2.9877    22.5622    47.2668 </r>
       <r>    -2.9344    61.5035    50.5463 </r>
       <r>    -2.8811    26.9668    51.9842 </r>
       <r>    -2.8277    34.0155    53.7980 </r>
       <r>    -2.7744   118.7071    60.1278 </r>
       <r>    -2.7211    66.9565    63.6981 </r>
       <r>    -2.6678     5.5996    63.9967 </r>
       <r>    -2.6145     0.0620    64.0000 </r>
       <r>    -2.5611     0.0001    64.0000 </r>
       <r>    -2.5078     0.0000    64.0000 </r>
       <r>    -2.4545     0.0000    64.0000 </r>
       <r>    -2.4012     0.0000    64.0000 </r>
       <r>    -2.3478     0.0000    64.0000 </r>
       <r>    -2.2945     0.0000    64.0000 </r>
       <r>    -2.2412     0.0000    64.0000 </r>
       <r>    -2.1879     0.0000    64.0000 </r>
       <r>    -2.1345     0.0000    64.0000 </r>
       <r>    -2.0812     0.0000    64.0000 </r>
       <r>    -2.0279     0.0000    64.0000 </r>
       <r>    -1.9746     0.0000    64.0000 </r>
       <r>    -1.9213     0.0000    64.0000 </r>
       <r>    -1.8679     0.0000    64.0000 </r>
       <r>    -1.8146     0.0000    64.0000 </r>
       <r>    -1.7613     0.0000    64.0000 </r>
       <r>    -1.7080     0.0000    64.0000 </r>
       <r>    -1.6546     0.0000    64.0000 </r>
       <r>    -1.6013     0.0000    64.0000 </r>
       <r>    -1.5480     0.0000    64.0000 </r>
       <r>    -1.4947     0.0000    64.0000 </r>
       <r>    -1.4414     0.0000    64.0000 </r>
       <r>    -1.3880     0.0105    64.0006 </r>
       <r>    -1.3347     1.7874    64.0959 </r>
       <r>    -1.2814    38.9480    66.1727 </r>
       <r>    -1.2281   123.2258    72.7434 </r>
       <r>    -1.1747    85.1580    77.2842 </r>
       <r>    -1.1214    66.2319    80.8159 </r>
       <r>    -1.0681    39.0172    82.8964 </r>
       <r>    -1.0148    64.4274    86.3318 </r>
       <r>    -0.9615    67.0532    89.9073 </r>
       <r>    -0.9081    60.9669    93.1582 </r>
       <r>    -0.8548    15.2189    93.9697 </r>
       <r>    -0.8015     0.5652    93.9999 </r>
       <r>    -0.7482     0.0027    94.0000 </r>
       <r>    -0.6948     0.0000    94.0000 </r>
       <r>    -0.6415     0.0000    94.0000 </r>
       <r>    -0.5882     0.0000    94.0000 </r>
       <r>    -0.5349     0.0000    94.0000 </r>
       <r>    -0.4815     0.0000    94.0000 </r>
       <r>    -0.4282     0.0000    94.0000 </r>
       <r>    -0.3749     0.0043    94.0002 </r>
       <r>    -0.3216     0.5477    94.0294 </r>
       <r>    -0.2683     9.1533    94.5175 </r>
       <r>    -0.2149    34.2629    96.3445 </r>
       <r>    -0.1616   101.9393   101.7802 </r>
       <r>    -0.1083   100.1764   107.1218 </r>
       <r>    -0.0550    16.1082   107.9808 </r>
       <r>    -0.0016     0.3596   107.9999 </r>
       <r>     0.0517     0.0010   108.0000 </r>
       <r>     0.1050     0.0000   108.0000 </r>
       <r>     0.1583     0.0000   108.0000 </r>
       <r>     0.2116     0.0000   108.0000 </r>
       <r>     0.2650     0.0000   108.0000 </r>
       <r>     0.3183     0.0000   108.0000 </r>
       <r>     0.3716     0.0000   108.0000 </r>
       <r>     0.4249     0.0000   108.0000 </r>
       <r>     0.4783     0.0000   108.0000 </r>
       <r>     0.5316     0.0000   108.0000 </r>
       <r>     0.5849     0.0151   108.0008 </r>
       <r>     0.6382     1.7965   108.0966 </r>
       <r>     0.6916    27.5614   109.5662 </r>
       <r>     0.7449    61.2701   112.8333 </r>
       <r>     0.7982    20.8608   113.9457 </r>
       <r>     0.8515     1.0125   113.9997 </r>
       <r>     0.9048     0.0095   114.0002 </r>
       <r>     0.9582     0.6692   114.0359 </r>
       <r>     1.0115    17.0013   114.9424 </r>
       <r>     1.0648    60.1458   118.1495 </r>
       <r>     1.1181    32.1872   119.8658 </r>
       <r>     1.1715     2.4910   119.9987 </r>
       <r>     1.2248     0.0248   120.0000 </r>
       <r>     1.2781     0.0000   120.0000 </r>
       <r>     1.3314     0.0000   120.0000 </r>
       <r>     1.3847     0.0000   120.0000 </r>
       <r>     1.4381     0.0000   120.0000 </r>
       <r>     1.4914     0.0003   120.0000 </r>
       <r>     1.5447     0.1719   120.0092 </r>
       <r>     1.5980    10.7031   120.5799 </r>
       <r>     1.6514    91.3372   125.4502 </r>
       <r>     1.7047   144.9250   133.1780 </r>
       <r>     1.7580    76.6492   137.2652 </r>
       <r>     1.8113    13.3770   137.9785 </r>
       <r>     1.8646     0.4026   137.9999 </r>
       <r>     1.9180     0.0015   138.0000 </r>
       <r>     1.9713     0.0000   138.0000 </r>
       <r>     2.0246     0.0000   138.0000 </r>
       <r>     2.0779     0.0000   138.0000 </r>
       <r>     2.1313     0.0065   138.0003 </r>
       <r>     2.1846     1.0548   138.0566 </r>
       <r>     2.2379    21.4565   139.2007 </r>
       <r>     2.2912    64.3246   142.6307 </r>
       <r>     2.3446    76.8909   146.7307 </r>
       <r>     2.3979   148.5143   154.6499 </r>
       <r>     2.4512   109.3521   160.4808 </r>
       <r>     2.5045    27.0843   161.9250 </r>
       <r>     2.5578     1.3966   161.9995 </r>
       <r>     2.6112     0.0641   162.0029 </r>
       <r>     2.6645     5.2313   162.2818 </r>
       <r>     2.7178    65.4998   165.7745 </r>
       <r>     2.7711   119.6590   172.1550 </r>
       <r>     2.8245    33.2952   173.9304 </r>
       <r>     2.8778     1.3400   174.0018 </r>
       <r>     2.9311     4.1372   174.2224 </r>
       <r>     2.9844    56.9704   177.2603 </r>
       <r>     3.0377   120.5609   183.6889 </r>
       <r>     3.0911    41.2073   185.8862 </r>
       <r>     3.1444     2.1204   185.9992 </r>
       <r>     3.1977     0.0148   186.0000 </r>
       <r>     3.2510     0.1076   186.0057 </r>
       <r>     3.3044     7.1144   186.3851 </r>
       <r>     3.3577    69.2380   190.0771 </r>
       <r>     3.4110   120.2800   196.4907 </r>
       <r>     3.4643    80.0399   200.7586 </r>
       <r>     3.5176    52.3535   203.5503 </r>
       <r>     3.5710     8.2537   203.9904 </r>
       <r>     3.6243     0.2956   204.0061 </r>
       <r>     3.6776     8.4088   204.4545 </r>
       <r>     3.7309    87.3501   209.1122 </r>
       <r>     3.7843   164.2867   217.8724 </r>
       <r>     3.8376    70.5142   221.6325 </r>
       <r>     3.8909     6.7846   221.9942 </r>
       <r>     3.9442     0.2298   222.0065 </r>
       <r>     3.9976     4.3364   222.2377 </r>
       <r>     4.0509    28.9310   223.7804 </r>
       <r>     4.1042    66.9029   227.3478 </r>
       <r>     4.1575    44.5184   229.7217 </r>
       <r>     4.2108     5.1530   229.9964 </r>
       <r>     4.2642     1.7564   230.0901 </r>
       <r>     4.3175    27.4936   231.5561 </r>
       <r>     4.3708    79.0605   235.7718 </r>
       <r>     4.4241    81.5988   240.1229 </r>
       <r>     4.4775    33.3036   241.8987 </r>
       <r>     4.5308    15.5087   242.7257 </r>
       <r>     4.5841    40.8199   244.9023 </r>
       <r>     4.6374    19.2709   245.9299 </r>
       <r>     4.6907     1.3038   245.9994 </r>
       <r>     4.7441     0.0329   246.0012 </r>
       <r>     4.7974     2.2655   246.1220 </r>
       <r>     4.8507    30.6768   247.7577 </r>
       <r>     4.9040    60.5240   250.9850 </r>
       <r>     4.9574    18.2524   251.9583 </r>
       <r>     5.0107     0.7779   251.9998 </r>
       <r>     5.0640     0.0042   252.0000 </r>
       <r>     5.1173     0.0000   252.0000 </r>
       <r>     5.1707     0.0000   252.0000 </r>
       <r>     5.2240     0.0141   252.0008 </r>
       <r>     5.2773     1.5101   252.0813 </r>
       <r>     5.3306    20.6009   253.1798 </r>
       <r>     5.3839    40.4204   255.3351 </r>
       <r>     5.4373    11.9730   255.9735 </r>
       <r>     5.4906     0.4939   255.9999 </r>
       <r>     5.5439     0.0025   256.0000 </r>
       <r>     5.5972     0.0000   256.0000 </r>
       <r>     5.6506     0.0000   256.0000 </r>
       <r>     5.7039     0.0000   256.0000 </r>
       <r>     5.7572     0.0000   256.0000 </r>
       <r>     5.8105     0.0000   256.0000 </r>
       <r>     5.8638     0.0000   256.0000 </r>
       <r>     5.9172     0.0000   256.0000 </r>
       <r>     5.9705     0.0000   256.0000 </r>
       <r>     6.0238     0.0000   256.0000 </r>
       <r>     6.0771     0.0000   256.0000 </r>
       <r>     6.1305     0.0000   256.0000 </r>
       <r>     6.1838     0.0000   256.0000 </r>
       <r>     6.2371     0.0000   256.0000 </r>
       <r>     6.2904     0.0000   256.0000 </r>
       <r>     6.3437     0.0000   256.0000 </r>
       <r>     6.3971     0.0001   256.0000 </r>
       <r>     6.4504     0.0799   256.0043 </r>
       <r>     6.5037     5.0989   256.2762 </r>
       <r>     6.5570    43.0722   258.5729 </r>
       <r>     6.6104    53.8700   261.4454 </r>
       <r>     6.6637    10.1406   261.9861 </r>
       <r>     6.7170     0.2601   262.0000 </r>
       <r>     6.7703     0.0008   262.0000 </r>
       <r>     6.8237     0.0000   262.0000 </r>
       <r>     6.8770     0.0184   262.0010 </r>
       <r>     6.9303     2.0438   262.1100 </r>
       <r>     6.9836    29.2927   263.6719 </r>
       <r>     7.0369    60.9291   266.9208 </r>
       <r>     7.0903    19.3630   267.9533 </r>
       <r>     7.1436     1.0732   268.0105 </r>
       <r>     7.1969     5.3921   268.2981 </r>
       <r>     7.2502    19.9140   269.3599 </r>
       <r>     7.3036    11.1002   269.9518 </r>
       <r>     7.3569     0.9032   270.0000 </r>
       <r>     7.4102     1.3000   270.0693 </r>
       <r>     7.4635    23.6422   271.3300 </r>
       <r>     7.5168    61.9015   274.6307 </r>
       <r>     7.5702    33.4789   276.4159 </r>
       <r>     7.6235    53.3752   279.2620 </r>
       <r>     7.6768    45.5742   281.6921 </r>
       <r>     7.7301    17.2371   282.6113 </r>
       <r>     7.7835    84.1075   287.0961 </r>
       <r>     7.8368   105.6827   292.7314 </r>
       <r>     7.8901    23.0161   293.9587 </r>
       <r>     7.9434     2.3804   294.0856 </r>
       <r>     7.9968    37.2260   296.0706 </r>
       <r>     8.0501   127.7818   302.8842 </r>
       <r>     8.1034    81.3704   307.2231 </r>
       <r>     8.1567    13.9058   307.9646 </r>
       <r>     8.2100     1.5851   308.0491 </r>
       <r>     8.2634    20.0220   309.1168 </r>
       <r>     8.3167    61.2310   312.3818 </r>
       <r>     8.3700    28.4530   313.8990 </r>
       <r>     8.4233     4.5230   314.1401 </r>
       <r>     8.4767    46.6290   316.6265 </r>
       <r>     8.5300   132.2579   323.6789 </r>
       <r>     8.5833    72.1891   327.5282 </r>
       <r>     8.6366     8.6363   327.9887 </r>
       <r>     8.6899     0.2115   328.0000 </r>
       <r>     8.7433     0.0008   328.0000 </r>
       <r>     8.7966     0.0000   328.0000 </r>
       <r>     8.8499     0.0000   328.0000 </r>
       <r>     8.9032     0.0000   328.0000 </r>
       <r>     8.9566     0.0000   328.0000 </r>
       <r>     9.0099     0.0000   328.0000 </r>
       <r>     9.0632     0.0000   328.0000 </r>
       <r>     9.1165     0.0000   328.0000 </r>
       <r>     9.1698     0.0000   328.0000 </r>
       <r>     9.2232     0.0000   328.0000 </r>
       <r>     9.2765     0.0000   328.0000 </r>
      </set>
     </set>
    </array>
   </total>
  </dos>
 </calculation>
 <structure name="finalpos" >
  <crystal>
   <varray name="basis" >
    <v>      10.93252578       0.00000000       0.00000000 </v>
    <v>       0.00000000      10.93252578       0.00000000 </v>
    <v>       0.00000000       0.00000000      10.93252578 </v>
   </varray>
   <i name="volume">   1306.65679237 </i>
   <varray name="rec_basis" >
    <v>       0.09147017       0.00000000       0.00000000 </v>
    <v>       0.00000000       0.09147017       0.00000000 </v>
    <v>       0.00000000       0.00000000       0.09147017 </v>
   </varray>
  </crystal>
  <varray name="positions" >
   <v>       0.44024411       0.43750000       0.43750000 </v>
   <v>       0.93750000       0.43750000       0.43750000 </v>
   <v>       0.43750000       0.93750000       0.43750000 </v>
   <v>       0.93750000       0.93750000       0.43750000 </v>
   <v>       0.43750000       0.43750000       0.93750000 </v>
   <v>       0.93750000       0.43750000       0.93750000 </v>
   <v>       0.43750000       0.93750000       0.93750000 </v>
   <v>       0.93750000       0.93750000       0.93750000 </v>
   <v>       0.43750000       0.18750000       0.18750000 </v>
   <v>       0.93750000       0.18750000       0.18750000 </v>
   <v>       0.43750000       0.68750000       0.18750000 </v>
   <v>       0.93750000       0.68750000       0.18750000 </v>
   <v>       0.43750000       0.18750000       0.68750000 </v>
   <v>       0.93750000       0.18750000       0.68750000 </v>
   <v>       0.43750000       0.68750000       0.68750000 </v>
   <v>       0.93750000       0.68750000       0.68750000 </v>
   <v>       0.18750000       0.43750000       0.18750000 </v>
   <v>       0.68750000       0.43750000       0.18750000 </v>
   <v>       0.18750000       0.93750000       0.18750000 </v>
   <v>       0.68750000       0.93750000       0.18750000 </v>
   <v>       0.18750000       0.43750000       0.68750000 </v>
   <v>       0.68750000       0.43750000       0.68750000 </v>
   <v>       0.18750000       0.93750000       0.68750000 </v>
   <v>       0.68750000       0.93750000       0.68750000 </v>
   <v>       0.18750000       0.18750000       0.43750000 </v>
   <v>       0.68750000       0.18750000       0.43750000 </v>
   <v>       0.18750000       0.68750000       0.43750000 </v>
   <v>       0.68750000       0.68750000       0.43750000 </v>
   <v>       0.18750000       0.18750000       0.93750000 </v>
   <v>       0.68750000       0.18750000       0.93750000 </v>
   <v>       0.18750000       0.68750000       0.93750000 </v>
   <v>       0.68750000       0.68750000       0.93750000 </v>
   <v>       0.06250000       0.06250000       0.06250000 </v>
   <v>       0.56524411       0.06250000       0.06250000 </v>
   <v>       0.06250000       0.56250000       0.06250000 </v>
   <v>       0.56250000       0.56250000       0.06250000 </v>
   <v>       0.06250000       0.06250000       0.56250000 </v>
   <v>       0.56250000       0.06250000       0.56250000 </v>
   <v>       0.06250000       0.56250000       0.56250000 </v>
   <v>       0.56250000       0.56250000       0.56250000 </v>
   <v>       0.06250000       0.31250000       0.31250000 </v>
   <v>       0.56250000       0.31250000       0.31250000 </v>
   <v>       0.06250000       0.81250000       0.31250000 </v>
   <v>       0.56250000       0.81250000       0.31250000 </v>
   <v>       0.06250000       0.31250000       0.81250000 </v>
   <v>       0.56250000       0.31250000       0.81250000 </v>
   <v>       0.06250000       0.81250000       0.81250000 </v>
   <v>       0.56250000       0.81250000       0.81250000 </v>
   <v>       0.31250000       0.06250000       0.31250000 </v>
   <v>       0.81250000       0.06250000       0.31250000 </v>
   <v>       0.31250000       0.56250000       0.31250000 </v>
   <v>       0.81250000       0.56250000       0.31250000 </v>
   <v>       0.31250000       0.06250000       0.81250000 </v>
   <v>       0.81250000       0.06250000       0.81250000 </v>
   <v>       0.31250000       0.56250000       0.81250000 </v>
   <v>       0.81250000       0.56250000       0.81250000 </v>
   <v>       0.31250000       0.31250000       0.06250000 </v>
   <v>       0.81250000       0.31250000       0.06250000 </v>
   <v>       0.31250000       0.81250000       0.06250000 </v>
   <v>       0.81250000       0.81250000       0.06250000 </v>
   <v>       0.31250000       0.31250000       0.56250000 </v>
   <v>       0.81250000       0.31250000       0.56250000 </v>
   <v>       0.31250000       0.81250000       0.56250000 </v>
   <v>       0.81250000       0.81250000       0.56250000 </v>
  </varray>
 </structure>
</modeling>
