
     Program PWSCF v.5.3.0 (svn rev. 11974) starts on  3Feb2016 at 13:50:46 

     This program is part of the open-source Quantum ESPRESSO suite
     for quantum simulation of materials; please cite
         "P. Giannozzi et al., J. Phys.:Condens. Matter 21 395502 (2009);
          URL http://www.quantum-espresso.org", 
     in publications or presentations arising from this work. More details at
     http://www.quantum-espresso.org/quote

     Parallel version (MPI), running on    16 processors
     R & G space division:  proc/nbgrp/npool/nimage =      16
     Reading input from Si.in

     Current dimensions of program PWSCF are:
     Max number of different atomic species (ntypx) = 10
     Max number of k-points (npk) =  40000
     Max angular momentum in pseudopotentials (lmaxx) =  3
               file Si.pbe-n-kjpaw_psl.0.1.UPF: wavefunction(s)  3S renormalized

     Subspace diagonalization in iterative solution of the eigenvalue problem:
     one sub-group per k-point group (pool) will be used
     scalapack distributed-memory algorithm (size of sub-group:  2*  2 procs)

 
     Parallelization info
     --------------------
     sticks:   dense  smooth     PW     G-vecs:    dense   smooth      PW
     Min         424     424    109                26332    26332    3467
     Max         425     425    110                26336    26336    3472
     Sum        6785    6785   1757               421349   421349   55515
 


     bravais-lattice index     =            0
     lattice parameter (alat)  =      20.6591  a.u.
     unit-cell volume          =    8817.2783 (a.u.)^3
     number of atoms/cell      =           64
     number of atomic types    =            1
     number of electrons       =       256.00
     number of Kohn-Sham states=          154
     kinetic-energy cutoff     =      50.0000  Ry
     charge density cutoff     =     200.0000  Ry
     convergence threshold     =      1.0E-09
     mixing beta               =       0.7000
     number of iterations used =            8  plain     mixing
     Exchange-correlation      =  SLA  PW   PBX  PBC ( 1  4  3  4 0 0)

     celldm(1)=  20.659106  celldm(2)=   0.000000  celldm(3)=   0.000000
     celldm(4)=   0.000000  celldm(5)=   0.000000  celldm(6)=   0.000000

     crystal axes: (cart. coord. in units of alat)
               a(1) = (   1.000000   0.000000   0.000000 )  
               a(2) = (   0.000000   1.000000   0.000000 )  
               a(3) = (   0.000000   0.000000   1.000000 )  

     reciprocal axes: (cart. coord. in units 2 pi/alat)
               b(1) = (  1.000000  0.000000  0.000000 )  
               b(2) = (  0.000000  1.000000  0.000000 )  
               b(3) = (  0.000000  0.000000  1.000000 )  


     PseudoPot. # 1 for Si read from file:
     /home/togo/espresso/pseudo/Si.pbe-n-kjpaw_psl.0.1.UPF
     MD5 check sum: b9d333a40e496bef61db012f150758bf
     Pseudo is Projector augmented-wave + core cor, Zval =  4.0
     Generated using "atomic" code by A. Dal Corso  v.5.0.2 svn rev. 9415
     Shape of augmentation charge: PSQ
     Using radial grid of 1141 points,  4 beta functions with: 
                l(1) =   0
                l(2) =   0
                l(3) =   1
                l(4) =   1
     Q(r) pseudized with 0 coefficients 


     atomic species   valence    mass     pseudopotential
        Si             4.00    28.08550     Si( 1.00)

     No symmetry found



   Cartesian axes

     site n.     atom                  positions (alat units)
         1           Si  tau(   1) = (   0.4404043   0.4375000   0.4375000  )
         2           Si  tau(   2) = (   0.9375000   0.4375000   0.4375000  )
         3           Si  tau(   3) = (   0.4375000   0.9375000   0.4375000  )
         4           Si  tau(   4) = (   0.9375000   0.9375000   0.4375000  )
         5           Si  tau(   5) = (   0.4375000   0.4375000   0.9375000  )
         6           Si  tau(   6) = (   0.9375000   0.4375000   0.9375000  )
         7           Si  tau(   7) = (   0.4375000   0.9375000   0.9375000  )
         8           Si  tau(   8) = (   0.9375000   0.9375000   0.9375000  )
         9           Si  tau(   9) = (   0.4375000   0.1875000   0.1875000  )
        10           Si  tau(  10) = (   0.9375000   0.1875000   0.1875000  )
        11           Si  tau(  11) = (   0.4375000   0.6875000   0.1875000  )
        12           Si  tau(  12) = (   0.9375000   0.6875000   0.1875000  )
        13           Si  tau(  13) = (   0.4375000   0.1875000   0.6875000  )
        14           Si  tau(  14) = (   0.9375000   0.1875000   0.6875000  )
        15           Si  tau(  15) = (   0.4375000   0.6875000   0.6875000  )
        16           Si  tau(  16) = (   0.9375000   0.6875000   0.6875000  )
        17           Si  tau(  17) = (   0.1875000   0.4375000   0.1875000  )
        18           Si  tau(  18) = (   0.6875000   0.4375000   0.1875000  )
        19           Si  tau(  19) = (   0.1875000   0.9375000   0.1875000  )
        20           Si  tau(  20) = (   0.6875000   0.9375000   0.1875000  )
        21           Si  tau(  21) = (   0.1875000   0.4375000   0.6875000  )
        22           Si  tau(  22) = (   0.6875000   0.4375000   0.6875000  )
        23           Si  tau(  23) = (   0.1875000   0.9375000   0.6875000  )
        24           Si  tau(  24) = (   0.6875000   0.9375000   0.6875000  )
        25           Si  tau(  25) = (   0.1875000   0.1875000   0.4375000  )
        26           Si  tau(  26) = (   0.6875000   0.1875000   0.4375000  )
        27           Si  tau(  27) = (   0.1875000   0.6875000   0.4375000  )
        28           Si  tau(  28) = (   0.6875000   0.6875000   0.4375000  )
        29           Si  tau(  29) = (   0.1875000   0.1875000   0.9375000  )
        30           Si  tau(  30) = (   0.6875000   0.1875000   0.9375000  )
        31           Si  tau(  31) = (   0.1875000   0.6875000   0.9375000  )
        32           Si  tau(  32) = (   0.6875000   0.6875000   0.9375000  )
        33           Si  tau(  33) = (   0.0625000   0.0625000   0.0625000  )
        34           Si  tau(  34) = (   0.5625000   0.0625000   0.0625000  )
        35           Si  tau(  35) = (   0.0625000   0.5625000   0.0625000  )
        36           Si  tau(  36) = (   0.5625000   0.5625000   0.0625000  )
        37           Si  tau(  37) = (   0.0625000   0.0625000   0.5625000  )
        38           Si  tau(  38) = (   0.5625000   0.0625000   0.5625000  )
        39           Si  tau(  39) = (   0.0625000   0.5625000   0.5625000  )
        40           Si  tau(  40) = (   0.5625000   0.5625000   0.5625000  )
        41           Si  tau(  41) = (   0.0625000   0.3125000   0.3125000  )
        42           Si  tau(  42) = (   0.5625000   0.3125000   0.3125000  )
        43           Si  tau(  43) = (   0.0625000   0.8125000   0.3125000  )
        44           Si  tau(  44) = (   0.5625000   0.8125000   0.3125000  )
        45           Si  tau(  45) = (   0.0625000   0.3125000   0.8125000  )
        46           Si  tau(  46) = (   0.5625000   0.3125000   0.8125000  )
        47           Si  tau(  47) = (   0.0625000   0.8125000   0.8125000  )
        48           Si  tau(  48) = (   0.5625000   0.8125000   0.8125000  )
        49           Si  tau(  49) = (   0.3125000   0.0625000   0.3125000  )
        50           Si  tau(  50) = (   0.8125000   0.0625000   0.3125000  )
        51           Si  tau(  51) = (   0.3125000   0.5625000   0.3125000  )
        52           Si  tau(  52) = (   0.8125000   0.5625000   0.3125000  )
        53           Si  tau(  53) = (   0.3125000   0.0595957   0.8125000  )
        54           Si  tau(  54) = (   0.8125000   0.0625000   0.8125000  )
        55           Si  tau(  55) = (   0.3125000   0.5625000   0.8125000  )
        56           Si  tau(  56) = (   0.8125000   0.5625000   0.8125000  )
        57           Si  tau(  57) = (   0.3125000   0.3125000   0.0625000  )
        58           Si  tau(  58) = (   0.8125000   0.3125000   0.0625000  )
        59           Si  tau(  59) = (   0.3125000   0.8125000   0.0625000  )
        60           Si  tau(  60) = (   0.8125000   0.8125000   0.0625000  )
        61           Si  tau(  61) = (   0.3125000   0.3125000   0.5625000  )
        62           Si  tau(  62) = (   0.8125000   0.3125000   0.5625000  )
        63           Si  tau(  63) = (   0.3125000   0.8125000   0.5625000  )
        64           Si  tau(  64) = (   0.8125000   0.8125000   0.5625000  )

     number of k points=     4  gaussian smearing, width (Ry)=  0.0100
                       cart. coord. in units 2pi/alat
        k(    1) = (   0.2500000   0.2500000   0.2500000), wk =   0.5000000
        k(    2) = (  -0.2500000  -0.2500000   0.2500000), wk =   0.5000000
        k(    3) = (  -0.2500000   0.2500000  -0.2500000), wk =   0.5000000
        k(    4) = (   0.2500000  -0.2500000  -0.2500000), wk =   0.5000000

     Dense  grid:   421349 G-vectors     FFT dimensions: (  96,  96,  96)

     Largest allocated arrays     est. size (Mb)     dimensions
        Kohn-Sham Wavefunctions         7.73 Mb     (    3289,  154)
        NL pseudopotentials            25.70 Mb     (    3289,  512)
        Each V/rho on FFT grid          0.84 Mb     (   55296)
        Each G-vector array             0.20 Mb     (   26336)
        G-vector shells                 0.01 Mb     (    1719)
     Largest temporary arrays     est. size (Mb)     dimensions
        Auxiliary wavefunctions        30.91 Mb     (    3289,  616)
        Each subspace H/S matrix        1.45 Mb     (     308,  308)
        Each <psi_i|beta_j> matrix      1.20 Mb     (     512,  154)
        Arrays for rho mixing           6.75 Mb     (   55296,    8)

     Check: negative/imaginary core charge=   -0.000001    0.000000

     Initial potential from superposition of free atoms

     starting charge  255.96421, renormalised to  256.00000
     Starting wfc are  256 randomized atomic wfcs
     Checking if some PAW data can be deallocated... 

     total cpu time spent up to now is       11.3 secs

     per-process dynamical memory:   114.8 Mb

     Self-consistent Calculation

     iteration #  1     ecut=    50.00 Ry     beta=0.70
     Davidson diagonalization with overlap
     ethr =  1.00E-02,  avg # of iterations =  3.0

     Threshold (ethr) on eigenvalues was too large:
     Diagonalizing with lowered threshold

     Davidson diagonalization with overlap
     ethr =  7.00E-04,  avg # of iterations =  1.0

     total cpu time spent up to now is       52.7 secs

     total energy              =   -2990.45691567 Ry
     Harris-Foulkes estimate   =   -2990.87685387 Ry
     estimated scf accuracy    <       1.77338427 Ry

     iteration #  2     ecut=    50.00 Ry     beta=0.70
     Davidson diagonalization with overlap
     ethr =  6.93E-04,  avg # of iterations =  1.0

     total cpu time spent up to now is       74.9 secs

     total energy              =   -2990.52359833 Ry
     Harris-Foulkes estimate   =   -2990.52748519 Ry
     estimated scf accuracy    <       0.07631747 Ry

     iteration #  3     ecut=    50.00 Ry     beta=0.70
     Davidson diagonalization with overlap
     ethr =  2.98E-05,  avg # of iterations = 11.0

     total cpu time spent up to now is      113.0 secs

     total energy              =   -2990.53052260 Ry
     Harris-Foulkes estimate   =   -2990.53138729 Ry
     estimated scf accuracy    <       0.00204635 Ry

     iteration #  4     ecut=    50.00 Ry     beta=0.70
     Davidson diagonalization with overlap
     ethr =  7.99E-07,  avg # of iterations =  7.2

     total cpu time spent up to now is      153.0 secs

     total energy              =   -2990.53022691 Ry
     Harris-Foulkes estimate   =   -2990.53290340 Ry
     estimated scf accuracy    <       0.00845220 Ry

     iteration #  5     ecut=    50.00 Ry     beta=0.70
     Davidson diagonalization with overlap
     ethr =  7.99E-07,  avg # of iterations =  5.0

     total cpu time spent up to now is      179.7 secs

     total energy              =   -2990.53147751 Ry
     Harris-Foulkes estimate   =   -2990.53160839 Ry
     estimated scf accuracy    <       0.00037820 Ry

     iteration #  6     ecut=    50.00 Ry     beta=0.70
     Davidson diagonalization with overlap
     ethr =  1.48E-07,  avg # of iterations =  2.0

     total cpu time spent up to now is      197.2 secs

     total energy              =   -2990.53154427 Ry
     Harris-Foulkes estimate   =   -2990.53156088 Ry
     estimated scf accuracy    <       0.00004831 Ry

     iteration #  7     ecut=    50.00 Ry     beta=0.70
     Davidson diagonalization with overlap
     ethr =  1.89E-08,  avg # of iterations =  2.2

     total cpu time spent up to now is      218.4 secs

     total energy              =   -2990.53155307 Ry
     Harris-Foulkes estimate   =   -2990.53155456 Ry
     estimated scf accuracy    <       0.00000335 Ry

     iteration #  8     ecut=    50.00 Ry     beta=0.70
     Davidson diagonalization with overlap
     ethr =  1.31E-09,  avg # of iterations =  3.0

     total cpu time spent up to now is      241.0 secs

     total energy              =   -2990.53155409 Ry
     Harris-Foulkes estimate   =   -2990.53155430 Ry
     estimated scf accuracy    <       0.00000048 Ry

     iteration #  9     ecut=    50.00 Ry     beta=0.70
     Davidson diagonalization with overlap
     ethr =  1.89E-10,  avg # of iterations =  2.8

     total cpu time spent up to now is      260.8 secs

     total energy              =   -2990.53155411 Ry
     Harris-Foulkes estimate   =   -2990.53155421 Ry
     estimated scf accuracy    <       0.00000020 Ry

     iteration # 10     ecut=    50.00 Ry     beta=0.70
     Davidson diagonalization with overlap
     ethr =  7.78E-11,  avg # of iterations =  2.2

     total cpu time spent up to now is      278.1 secs

     total energy              =   -2990.53155409 Ry
     Harris-Foulkes estimate   =   -2990.53155414 Ry
     estimated scf accuracy    <       0.00000006 Ry

     iteration # 11     ecut=    50.00 Ry     beta=0.70
     Davidson diagonalization with overlap
     ethr =  2.21E-11,  avg # of iterations =  2.0

     total cpu time spent up to now is      295.9 secs

     total energy              =   -2990.53155410 Ry
     Harris-Foulkes estimate   =   -2990.53155410 Ry
     estimated scf accuracy    <          2.0E-09 Ry

     iteration # 12     ecut=    50.00 Ry     beta=0.70
     Davidson diagonalization with overlap
     ethr =  7.76E-13,  avg # of iterations =  3.0

     total cpu time spent up to now is      323.1 secs

     total energy              =   -2990.53155410 Ry
     Harris-Foulkes estimate   =   -2990.53155410 Ry
     estimated scf accuracy    <          1.1E-09 Ry

     iteration # 13     ecut=    50.00 Ry     beta=0.70
     Davidson diagonalization with overlap
     ethr =  4.27E-13,  avg # of iterations =  2.0

     total cpu time spent up to now is      348.8 secs

     End of self-consistent calculation

          k = 0.2500 0.2500 0.2500 ( 52563 PWs)   bands (ev):

    -5.6250  -5.1009  -5.0948  -5.0937  -4.6011  -4.5949  -4.5940  -4.1621
    -4.0674  -4.0614  -4.0601  -3.6549  -3.6535  -3.6461  -3.6444  -3.6436
    -3.6428  -3.4596  -3.4548  -3.4520  -2.9614  -2.9550  -2.9536  -2.5935
    -2.5893  -2.5861  -2.4291  -2.4256  -2.4198  -2.4187  -2.4171  -2.4160
    -0.8872  -0.8826  -0.8769  -0.8755  -0.8735  -0.8715  -0.7826  -0.7798
    -0.7760  -0.6632  -0.6620  -0.6560  -0.5858  -0.5799  -0.5753   0.1225
     0.2046   0.2060   0.2119   0.2152   0.2162   0.2197   1.0791   1.0821
     1.0876   1.4158   1.4181   1.4212   2.0245   2.0274   2.0289   2.0299
     2.0317   2.0329   2.0869   2.0901   2.0914   2.6366   2.6377   2.6401
     2.7400   2.7412   2.7422   2.7445   2.7480   2.7505   2.7956   2.7989
     2.8020   3.1015   3.1031   3.1073   3.1091   3.1106   3.1130   3.3709
     3.3731   3.3742   3.3846   3.3877   3.3906   3.7282   3.7335   3.7357
     3.7501   3.7538   3.7567   3.8379   3.8401   3.8441   4.1029   4.1084
     4.1119   4.1135   4.1155   4.1167   4.1521   4.1543   4.1587   4.4091
     4.4709   4.4739   4.4750   4.7132   4.7156   4.7206   4.7706   4.7736
     4.7782   4.9350   4.9399   5.2422   5.2452   5.2516   5.7235   5.7293
     6.9346   6.9386   6.9405   7.3733   7.3767   7.3825   7.6002   7.8598
     7.8633   7.8673   7.9872   7.9895   7.9940   8.1494   8.1515   8.1541
     8.1668   8.1710   8.1722   8.3947   8.3964   8.4000   8.4013   8.4046
     8.4063   8.4505

          k =-0.2500-0.2500 0.2500 ( 52563 PWs)   bands (ev):

    -5.6251  -5.0994  -5.0960  -5.0934  -4.5998  -4.5964  -4.5941  -4.1641
    -4.0671  -4.0633  -4.0609  -3.6529  -3.6502  -3.6476  -3.6473  -3.6423
    -3.6393  -3.4577  -3.4547  -3.4498  -2.9647  -2.9588  -2.9578  -2.5923
    -2.5891  -2.5854  -2.4271  -2.4247  -2.4215  -2.4210  -2.4164  -2.4120
    -0.8851  -0.8838  -0.8787  -0.8783  -0.8762  -0.8712  -0.7851  -0.7805
    -0.7779  -0.6680  -0.6624  -0.6614  -0.5775  -0.5745  -0.5632   0.1300
     0.2026   0.2058   0.2097   0.2105   0.2122   0.2148   1.0827   1.0859
     1.0947   1.4151   1.4183   1.4214   2.0248   2.0262   2.0282   2.0299
     2.0311   2.0334   2.0844   2.0874   2.0899   2.6401   2.6424   2.6436
     2.7368   2.7380   2.7410   2.7417   2.7458   2.7473   2.7913   2.7938
     2.7981   3.1031   3.1066   3.1069   3.1079   3.1100   3.1120   3.3691
     3.3698   3.3727   3.3823   3.3853   3.3873   3.7339   3.7366   3.7392
     3.7562   3.7599   3.7630   3.8363   3.8381   3.8407   4.1126   4.1136
     4.1139   4.1164   4.1193   4.1254   4.1501   4.1521   4.1555   4.4173
     4.4669   4.4679   4.4711   4.7099   4.7125   4.7150   4.7790   4.7810
     4.7913   4.9325   4.9376   5.2374   5.2409   5.2442   5.7188   5.7244
     6.9318   6.9338   6.9380   7.3714   7.3765   7.3800   7.5972   7.8561
     7.8604   7.8640   7.9892   7.9938   7.9963   8.1464   8.1522   8.1538
     8.1661   8.1681   8.1713   8.3995   8.4009   8.4021   8.4045   8.4079
     8.4099   8.4459

          k =-0.2500 0.2500-0.2500 ( 52563 PWs)   bands (ev):

    -5.6251  -5.1005  -5.0962  -5.0923  -4.6008  -4.5967  -4.5927  -4.1631
    -4.0676  -4.0634  -4.0591  -3.6547  -3.6497  -3.6490  -3.6469  -3.6443
    -3.6377  -3.4590  -3.4548  -3.4504  -2.9630  -2.9592  -2.9535  -2.5930
    -2.5892  -2.5857  -2.4288  -2.4233  -2.4226  -2.4209  -2.4182  -2.4108
    -0.8867  -0.8814  -0.8800  -0.8780  -0.8750  -0.8688  -0.7841  -0.7804
    -0.7768  -0.6674  -0.6622  -0.6569  -0.5828  -0.5772  -0.5681   0.1263
     0.2033   0.2069   0.2082   0.2108   0.2153   0.2203   1.0801   1.0846
     1.0914   1.4140   1.4181   1.4228   2.0235   2.0261   2.0290   2.0303
     2.0320   2.0333   2.0853   2.0876   2.0923   2.6383   2.6400   2.6418
     2.7367   2.7391   2.7425   2.7449   2.7465   2.7487   2.7921   2.7971
     2.8009   3.1015   3.1053   3.1066   3.1073   3.1107   3.1141   3.3687
     3.3720   3.3744   3.3824   3.3860   3.3903   3.7311   3.7348   3.7373
     3.7541   3.7571   3.7591   3.8365   3.8386   3.8434   4.1064   4.1115
     4.1135   4.1147   4.1166   4.1225   4.1502   4.1527   4.1584   4.4129
     4.4679   4.4708   4.4745   4.7109   4.7136   4.7188   4.7734   4.7783
     4.7852   4.9319   4.9406   5.2387   5.2426   5.2495   5.7191   5.7289
     6.9324   6.9363   6.9400   7.3725   7.3752   7.3825   7.5987   7.8579
     7.8607   7.8670   7.9877   7.9918   7.9955   8.1470   8.1516   8.1548
     8.1657   8.1692   8.1732   8.3961   8.3988   8.4009   8.4022   8.4062
     8.4099   8.4483

          k = 0.2500-0.2500-0.2500 ( 52563 PWs)   bands (ev):

    -5.6251  -5.1009  -5.0955  -5.0926  -4.6012  -4.5959  -4.5931  -4.1632
    -4.0681  -4.0624  -4.0597  -3.6558  -3.6499  -3.6482  -3.6451  -3.6449
    -3.6385  -3.4590  -3.4549  -3.4506  -2.9639  -2.9573  -2.9544  -2.5931
    -2.5891  -2.5856  -2.4289  -2.4240  -2.4222  -2.4192  -2.4183  -2.4119
    -0.8873  -0.8824  -0.8798  -0.8766  -0.8746  -0.8694  -0.7841  -0.7803
    -0.7769  -0.6674  -0.6624  -0.6566  -0.5832  -0.5763  -0.5687   0.1263
     0.2020   0.2055   0.2092   0.2127   0.2160   0.2192   1.0796   1.0857
     1.0908   1.4138   1.4186   1.4226   2.0226   2.0276   2.0288   2.0301
     2.0315   2.0337   2.0851   2.0882   2.0920   2.6378   2.6400   2.6424
     2.7376   2.7386   2.7418   2.7439   2.7471   2.7491   2.7922   2.7975
     2.8005   3.0999   3.1052   3.1079   3.1086   3.1106   3.1132   3.3695
     3.3718   3.3733   3.3820   3.3868   3.3903   3.7308   3.7344   3.7385
     3.7523   3.7563   3.7608   3.8359   3.8399   3.8428   4.1060   4.1119
     4.1136   4.1153   4.1168   4.1217   4.1496   4.1541   4.1577   4.4132
     4.4687   4.4711   4.4731   4.7103   4.7145   4.7184   4.7732   4.7787
     4.7851   4.9319   4.9406   5.2381   5.2437   5.2489   5.7191   5.7289
     6.9330   6.9361   6.9396   7.3721   7.3758   7.3823   7.5987   7.8579
     7.8607   7.8669   7.9877   7.9918   7.9956   8.1473   8.1509   8.1549
     8.1673   8.1692   8.1717   8.3945   8.3991   8.4017   8.4047   8.4062
     8.4078   8.4481

     the Fermi energy is     6.3276 ev

!    total energy              =   -2990.53155411 Ry
     Harris-Foulkes estimate   =   -2990.53155410 Ry
     estimated scf accuracy    <          3.0E-10 Ry

     total all-electron energy =    -37124.667107 Ry

     The total energy is the sum of the following terms:

     one-electron contribution =     178.60650334 Ry
     hartree contribution      =      35.70145133 Ry
     xc contribution           =    -391.44199651 Ry
     ewald contribution        =    -534.00620675 Ry
     one-center paw contrib.   =   -2279.39130552 Ry
     smearing contrib. (-TS)   =       0.00000000 Ry

     convergence has been achieved in  13 iterations

     Forces acting on atoms (Ry/au):

     atom    1 type  1   force =    -0.01586397   -0.00002604    0.00002573
     atom    2 type  1   force =     0.00005345    0.00002146    0.00003140
     atom    3 type  1   force =     0.00010487    0.00006036    0.00003881
     atom    4 type  1   force =     0.00002102   -0.00025610    0.00002807
     atom    5 type  1   force =     0.00009328    0.00001276    0.00003798
     atom    6 type  1   force =     0.00001783   -0.00002566    0.00002682
     atom    7 type  1   force =     0.00223012   -0.00393094    0.00270440
     atom    8 type  1   force =     0.00006344    0.00006009    0.00004985
     atom    9 type  1   force =    -0.00057984    0.00017278    0.00015157
     atom   10 type  1   force =    -0.00002784   -0.00024325    0.00003769
     atom   11 type  1   force =    -0.00055243    0.00008124   -0.00008256
     atom   12 type  1   force =    -0.00003044    0.00003128    0.00002130
     atom   13 type  1   force =    -0.00300617   -0.00392220    0.00258878
     atom   14 type  1   force =    -0.00003665    0.00004853    0.00006067
     atom   15 type  1   force =    -0.00056532   -0.00010184   -0.00007631
     atom   16 type  1   force =    -0.00002731   -0.00003753    0.00001942
     atom   17 type  1   force =     0.00020462   -0.00013600    0.00020247
     atom   18 type  1   force =     0.00020712   -0.00009208   -0.00026401
     atom   19 type  1   force =    -0.00000790    0.00005084   -0.00011550
     atom   20 type  1   force =     0.00001495   -0.00026611    0.00004892
     atom   21 type  1   force =     0.00019287    0.00012233   -0.00026583
     atom   22 type  1   force =     0.00021333    0.00008869    0.00020578
     atom   23 type  1   force =    -0.00266321   -0.00392023   -0.00262765
     atom   24 type  1   force =     0.00000488    0.00006961   -0.00012725
     atom   25 type  1   force =     0.00028210    0.00028551   -0.00014738
     atom   26 type  1   force =     0.00026653   -0.00048555   -0.00014174
     atom   27 type  1   force =     0.00025986   -0.00025533    0.00008333
     atom   28 type  1   force =     0.00026962    0.00025473    0.00008307
     atom   29 type  1   force =     0.00252395   -0.00388827   -0.00249170
     atom   30 type  1   force =     0.00008049    0.00013559   -0.00006085
     atom   31 type  1   force =     0.00008008    0.00008963   -0.00002836
     atom   32 type  1   force =     0.00006975   -0.00010487   -0.00001937
     atom   33 type  1   force =    -0.00013087    0.00055455    0.00014097
     atom   34 type  1   force =     0.00014192    0.00055616   -0.00008603
     atom   35 type  1   force =     0.00001610    0.00002609    0.00003463
     atom   36 type  1   force =    -0.00006938    0.00005052    0.00002935
     atom   37 type  1   force =     0.00014000    0.00055292    0.00014041
     atom   38 type  1   force =     0.00004912    0.00056186   -0.00005947
     atom   39 type  1   force =    -0.00000392    0.00003882    0.00004747
     atom   40 type  1   force =     0.00393977    0.00270433    0.00269626
     atom   41 type  1   force =    -0.00009005   -0.00008115   -0.00004758
     atom   42 type  1   force =     0.00400697   -0.00274837   -0.00269571
     atom   43 type  1   force =     0.00010202   -0.00006741   -0.00003585
     atom   44 type  1   force =    -0.00013621   -0.00008152   -0.00004038
     atom   45 type  1   force =     0.00025349   -0.00025839   -0.00013494
     atom   46 type  1   force =    -0.00028684   -0.00028131    0.00007158
     atom   47 type  1   force =    -0.00025507   -0.00026929   -0.00014611
     atom   48 type  1   force =     0.00048878   -0.00026678    0.00008532
     atom   49 type  1   force =    -0.00005896   -0.00009223    0.00005161
     atom   50 type  1   force =     0.00002853    0.00044819    0.00002950
     atom   51 type  1   force =     0.00381201   -0.00247523    0.00248198
     atom   52 type  1   force =    -0.00001234   -0.00006207    0.00003808
     atom   53 type  1   force =     0.00025217    0.01586508    0.00002711
     atom   54 type  1   force =    -0.00002075   -0.00008576    0.00003012
     atom   55 type  1   force =    -0.00005848   -0.00007402    0.00003729
     atom   56 type  1   force =     0.00002816   -0.00002174    0.00002611
     atom   57 type  1   force =     0.00005098   -0.00017976   -0.00026446
     atom   58 type  1   force =     0.00003775   -0.00001362    0.00005078
     atom   59 type  1   force =     0.00036662   -0.00021008    0.00020613
     atom   60 type  1   force =    -0.00001151   -0.00001229   -0.00010666
     atom   61 type  1   force =     0.00370246    0.00225045   -0.00225264
     atom   62 type  1   force =    -0.00002165   -0.00000465   -0.00011515
     atom   63 type  1   force =    -0.00017294   -0.00020048   -0.00028460
     atom   64 type  1   force =     0.00001904   -0.00001622    0.00004736

     Total force =     0.027140     Total SCF correction =     0.000034

     Writing output data file pwscf.save
 
     init_run     :      9.09s CPU     10.98s WALL (       1 calls)
     electrons    :    303.95s CPU    337.68s WALL (       1 calls)
     forces       :      4.58s CPU      4.72s WALL (       1 calls)

     Called by init_run:
     wfcinit      :      8.46s CPU      9.47s WALL (       1 calls)
     potinit      :      0.24s CPU      0.24s WALL (       1 calls)

     Called by electrons:
     c_bands      :    270.65s CPU    300.18s WALL (      14 calls)
     sum_band     :     28.35s CPU     32.34s WALL (      14 calls)
     v_of_rho     :      0.83s CPU      0.83s WALL (      14 calls)
     newd         :      1.49s CPU      1.55s WALL (      14 calls)
     PAW_pot      :      2.34s CPU      2.34s WALL (      14 calls)
     mix_rho      :      0.46s CPU      0.46s WALL (      14 calls)

     Called by c_bands:
     init_us_2    :      5.21s CPU      5.25s WALL (     120 calls)
     cegterg      :    263.93s CPU    270.80s WALL (      56 calls)

     Called by sum_band:
     sum_band:bec :      0.05s CPU      0.05s WALL (      56 calls)
     addusdens    :      1.62s CPU      1.80s WALL (      14 calls)

     Called by *egterg:
     h_psi        :    122.34s CPU    122.84s WALL (     250 calls)
     s_psi        :     31.07s CPU     31.14s WALL (     250 calls)
     g_psi        :      1.19s CPU      1.19s WALL (     190 calls)
     cdiaghg      :     38.36s CPU     38.46s WALL (     242 calls)

     Called by h_psi:
     add_vuspsi   :     31.92s CPU     32.02s WALL (     250 calls)

     General routines
     calbec       :     48.65s CPU     48.80s WALL (     322 calls)
     fft          :      0.44s CPU      0.45s WALL (     195 calls)
     fftw         :     59.83s CPU     60.28s WALL (   57186 calls)
     davcio       :      0.00s CPU      0.05s WALL (       4 calls)
 
     Parallel routines
     fft_scatter  :     16.78s CPU     16.14s WALL (   57381 calls)
 
     PWSCF        :  5m17.97s CPU     6m 2.70s WALL

 
   This run was terminated on:  13:56:49   3Feb2016            

=------------------------------------------------------------------------------=
   JOB DONE.
=------------------------------------------------------------------------------=
