
     Program PWSCF v.5.3.0 (svn rev. 11974) starts on  3Feb2016 at 13:48:42 

     This program is part of the open-source Quantum ESPRESSO suite
     for quantum simulation of materials; please cite
         "P. Giannozzi et al., J. Phys.:Condens. Matter 21 395502 (2009);
          URL http://www.quantum-espresso.org", 
     in publications or presentations arising from this work. More details at
     http://www.quantum-espresso.org/quote

     Parallel version (MPI), running on    16 processors
     R & G space division:  proc/nbgrp/npool/nimage =      16
     Reading input from Si.in

     Current dimensions of program PWSCF are:
     Max number of different atomic species (ntypx) = 10
     Max number of k-points (npk) =  40000
     Max angular momentum in pseudopotentials (lmaxx) =  3
               file Si.pbe-n-kjpaw_psl.0.1.UPF: wavefunction(s)  3S renormalized

     Subspace diagonalization in iterative solution of the eigenvalue problem:
     one sub-group per k-point group (pool) will be used
     scalapack distributed-memory algorithm (size of sub-group:  2*  2 procs)

 
     Parallelization info
     --------------------
     sticks:   dense  smooth     PW     G-vecs:    dense   smooth      PW
     Min         424     424    109                26332    26332    3467
     Max         425     425    110                26336    26336    3472
     Sum        6785    6785   1757               421349   421349   55515
 


     bravais-lattice index     =            0
     lattice parameter (alat)  =      20.6591  a.u.
     unit-cell volume          =    8817.2783 (a.u.)^3
     number of atoms/cell      =           64
     number of atomic types    =            1
     number of electrons       =       256.00
     number of Kohn-Sham states=          154
     kinetic-energy cutoff     =      50.0000  Ry
     charge density cutoff     =     200.0000  Ry
     convergence threshold     =      1.0E-09
     mixing beta               =       0.7000
     number of iterations used =            8  plain     mixing
     Exchange-correlation      =  SLA  PW   PBX  PBC ( 1  4  3  4 0 0)

     celldm(1)=  20.659106  celldm(2)=   0.000000  celldm(3)=   0.000000
     celldm(4)=   0.000000  celldm(5)=   0.000000  celldm(6)=   0.000000

     crystal axes: (cart. coord. in units of alat)
               a(1) = (   1.000000   0.000000   0.000000 )  
               a(2) = (   0.000000   1.000000   0.000000 )  
               a(3) = (   0.000000   0.000000   1.000000 )  

     reciprocal axes: (cart. coord. in units 2 pi/alat)
               b(1) = (  1.000000  0.000000  0.000000 )  
               b(2) = (  0.000000  1.000000  0.000000 )  
               b(3) = (  0.000000  0.000000  1.000000 )  


     PseudoPot. # 1 for Si read from file:
     /home/togo/espresso/pseudo/Si.pbe-n-kjpaw_psl.0.1.UPF
     MD5 check sum: b9d333a40e496bef61db012f150758bf
     Pseudo is Projector augmented-wave + core cor, Zval =  4.0
     Generated using "atomic" code by A. Dal Corso  v.5.0.2 svn rev. 9415
     Shape of augmentation charge: PSQ
     Using radial grid of 1141 points,  4 beta functions with: 
                l(1) =   0
                l(2) =   0
                l(3) =   1
                l(4) =   1
     Q(r) pseudized with 0 coefficients 


     atomic species   valence    mass     pseudopotential
        Si             4.00    28.08550     Si( 1.00)

     No symmetry found



   Cartesian axes

     site n.     atom                  positions (alat units)
         1           Si  tau(   1) = (   0.4404043   0.4375000   0.4375000  )
         2           Si  tau(   2) = (   0.9375000   0.4375000   0.4375000  )
         3           Si  tau(   3) = (   0.4375000   0.9375000   0.4375000  )
         4           Si  tau(   4) = (   0.9375000   0.9375000   0.4375000  )
         5           Si  tau(   5) = (   0.4375000   0.4375000   0.9375000  )
         6           Si  tau(   6) = (   0.9375000   0.4375000   0.9375000  )
         7           Si  tau(   7) = (   0.4375000   0.9375000   0.9375000  )
         8           Si  tau(   8) = (   0.9375000   0.9375000   0.9375000  )
         9           Si  tau(   9) = (   0.4375000   0.1875000   0.1875000  )
        10           Si  tau(  10) = (   0.9375000   0.1875000   0.1875000  )
        11           Si  tau(  11) = (   0.4375000   0.6875000   0.1875000  )
        12           Si  tau(  12) = (   0.9375000   0.6875000   0.1875000  )
        13           Si  tau(  13) = (   0.4375000   0.1875000   0.6875000  )
        14           Si  tau(  14) = (   0.9375000   0.1875000   0.6875000  )
        15           Si  tau(  15) = (   0.4375000   0.6875000   0.6875000  )
        16           Si  tau(  16) = (   0.9375000   0.6875000   0.6875000  )
        17           Si  tau(  17) = (   0.1875000   0.4375000   0.1875000  )
        18           Si  tau(  18) = (   0.6875000   0.4375000   0.1875000  )
        19           Si  tau(  19) = (   0.1875000   0.9375000   0.1875000  )
        20           Si  tau(  20) = (   0.6875000   0.9375000   0.1875000  )
        21           Si  tau(  21) = (   0.1875000   0.4375000   0.6875000  )
        22           Si  tau(  22) = (   0.6875000   0.4375000   0.6875000  )
        23           Si  tau(  23) = (   0.1875000   0.9375000   0.6875000  )
        24           Si  tau(  24) = (   0.6875000   0.9375000   0.6875000  )
        25           Si  tau(  25) = (   0.1875000   0.1875000   0.4375000  )
        26           Si  tau(  26) = (   0.6875000   0.1875000   0.4375000  )
        27           Si  tau(  27) = (   0.1875000   0.6875000   0.4375000  )
        28           Si  tau(  28) = (   0.6875000   0.6875000   0.4375000  )
        29           Si  tau(  29) = (   0.1875000   0.1875000   0.9375000  )
        30           Si  tau(  30) = (   0.6875000   0.1875000   0.9375000  )
        31           Si  tau(  31) = (   0.1875000   0.6875000   0.9375000  )
        32           Si  tau(  32) = (   0.6875000   0.6875000   0.9375000  )
        33           Si  tau(  33) = (   0.0625000   0.0625000   0.0625000  )
        34           Si  tau(  34) = (   0.5625000   0.0625000   0.0625000  )
        35           Si  tau(  35) = (   0.0625000   0.5625000   0.0625000  )
        36           Si  tau(  36) = (   0.5625000   0.5625000   0.0625000  )
        37           Si  tau(  37) = (   0.0625000   0.0625000   0.5625000  )
        38           Si  tau(  38) = (   0.5625000   0.0625000   0.5625000  )
        39           Si  tau(  39) = (   0.0625000   0.5625000   0.5625000  )
        40           Si  tau(  40) = (   0.5625000   0.5625000   0.5625000  )
        41           Si  tau(  41) = (   0.0625000   0.3125000   0.3125000  )
        42           Si  tau(  42) = (   0.5625000   0.3125000   0.3125000  )
        43           Si  tau(  43) = (   0.0625000   0.8125000   0.3125000  )
        44           Si  tau(  44) = (   0.5625000   0.8125000   0.3125000  )
        45           Si  tau(  45) = (   0.0625000   0.3125000   0.8125000  )
        46           Si  tau(  46) = (   0.5625000   0.3125000   0.8125000  )
        47           Si  tau(  47) = (   0.0625000   0.8125000   0.8125000  )
        48           Si  tau(  48) = (   0.5625000   0.8125000   0.8125000  )
        49           Si  tau(  49) = (   0.3125000   0.0625000   0.3125000  )
        50           Si  tau(  50) = (   0.8125000   0.0625000   0.3095957  )
        51           Si  tau(  51) = (   0.3125000   0.5625000   0.3125000  )
        52           Si  tau(  52) = (   0.8125000   0.5625000   0.3125000  )
        53           Si  tau(  53) = (   0.3125000   0.0625000   0.8125000  )
        54           Si  tau(  54) = (   0.8125000   0.0625000   0.8125000  )
        55           Si  tau(  55) = (   0.3125000   0.5625000   0.8125000  )
        56           Si  tau(  56) = (   0.8125000   0.5625000   0.8125000  )
        57           Si  tau(  57) = (   0.3125000   0.3125000   0.0625000  )
        58           Si  tau(  58) = (   0.8125000   0.3125000   0.0625000  )
        59           Si  tau(  59) = (   0.3125000   0.8125000   0.0625000  )
        60           Si  tau(  60) = (   0.8125000   0.8125000   0.0625000  )
        61           Si  tau(  61) = (   0.3125000   0.3125000   0.5625000  )
        62           Si  tau(  62) = (   0.8125000   0.3125000   0.5625000  )
        63           Si  tau(  63) = (   0.3125000   0.8125000   0.5625000  )
        64           Si  tau(  64) = (   0.8125000   0.8125000   0.5625000  )

     number of k points=     4  gaussian smearing, width (Ry)=  0.0100
                       cart. coord. in units 2pi/alat
        k(    1) = (   0.2500000   0.2500000   0.2500000), wk =   0.5000000
        k(    2) = (  -0.2500000  -0.2500000   0.2500000), wk =   0.5000000
        k(    3) = (  -0.2500000   0.2500000  -0.2500000), wk =   0.5000000
        k(    4) = (   0.2500000  -0.2500000  -0.2500000), wk =   0.5000000

     Dense  grid:   421349 G-vectors     FFT dimensions: (  96,  96,  96)

     Largest allocated arrays     est. size (Mb)     dimensions
        Kohn-Sham Wavefunctions         7.73 Mb     (    3289,  154)
        NL pseudopotentials            25.70 Mb     (    3289,  512)
        Each V/rho on FFT grid          0.84 Mb     (   55296)
        Each G-vector array             0.20 Mb     (   26336)
        G-vector shells                 0.01 Mb     (    1719)
     Largest temporary arrays     est. size (Mb)     dimensions
        Auxiliary wavefunctions        30.91 Mb     (    3289,  616)
        Each subspace H/S matrix        1.45 Mb     (     308,  308)
        Each <psi_i|beta_j> matrix      1.20 Mb     (     512,  154)
        Arrays for rho mixing           6.75 Mb     (   55296,    8)

     Check: negative/imaginary core charge=   -0.000001    0.000000

     Initial potential from superposition of free atoms

     starting charge  255.96421, renormalised to  256.00000
     Starting wfc are  256 randomized atomic wfcs
     Checking if some PAW data can be deallocated... 

     total cpu time spent up to now is        9.8 secs

     per-process dynamical memory:   114.8 Mb

     Self-consistent Calculation

     iteration #  1     ecut=    50.00 Ry     beta=0.70
     Davidson diagonalization with overlap
     ethr =  1.00E-02,  avg # of iterations =  3.0

     Threshold (ethr) on eigenvalues was too large:
     Diagonalizing with lowered threshold

     Davidson diagonalization with overlap
     ethr =  7.00E-04,  avg # of iterations =  1.0

     total cpu time spent up to now is       59.1 secs

     total energy              =   -2990.45690971 Ry
     Harris-Foulkes estimate   =   -2990.87686069 Ry
     estimated scf accuracy    <       1.77350306 Ry

     iteration #  2     ecut=    50.00 Ry     beta=0.70
     Davidson diagonalization with overlap
     ethr =  6.93E-04,  avg # of iterations =  1.0

     total cpu time spent up to now is       72.5 secs

     total energy              =   -2990.52360722 Ry
     Harris-Foulkes estimate   =   -2990.52747661 Ry
     estimated scf accuracy    <       0.07628378 Ry

     iteration #  3     ecut=    50.00 Ry     beta=0.70
     Davidson diagonalization with overlap
     ethr =  2.98E-05,  avg # of iterations = 10.5

     total cpu time spent up to now is      101.7 secs

     total energy              =   -2990.53062752 Ry
     Harris-Foulkes estimate   =   -2990.53135819 Ry
     estimated scf accuracy    <       0.00190186 Ry

     iteration #  4     ecut=    50.00 Ry     beta=0.70
     Davidson diagonalization with overlap
     ethr =  7.43E-07,  avg # of iterations =  8.5

     total cpu time spent up to now is      142.1 secs

     total energy              =   -2990.53055789 Ry
     Harris-Foulkes estimate   =   -2990.53253869 Ry
     estimated scf accuracy    <       0.00608838 Ry

     iteration #  5     ecut=    50.00 Ry     beta=0.70
     Davidson diagonalization with overlap
     ethr =  7.43E-07,  avg # of iterations =  4.0

     total cpu time spent up to now is      165.4 secs

     total energy              =   -2990.53148200 Ry
     Harris-Foulkes estimate   =   -2990.53159655 Ry
     estimated scf accuracy    <       0.00032909 Ry

     iteration #  6     ecut=    50.00 Ry     beta=0.70
     Davidson diagonalization with overlap
     ethr =  1.29E-07,  avg # of iterations =  2.0

     total cpu time spent up to now is      181.7 secs

     total energy              =   -2990.53154070 Ry
     Harris-Foulkes estimate   =   -2990.53155791 Ry
     estimated scf accuracy    <       0.00004990 Ry

     iteration #  7     ecut=    50.00 Ry     beta=0.70
     Davidson diagonalization with overlap
     ethr =  1.95E-08,  avg # of iterations =  2.8

     total cpu time spent up to now is      204.4 secs

     total energy              =   -2990.53154966 Ry
     Harris-Foulkes estimate   =   -2990.53155133 Ry
     estimated scf accuracy    <       0.00000382 Ry

     iteration #  8     ecut=    50.00 Ry     beta=0.70
     Davidson diagonalization with overlap
     ethr =  1.49E-09,  avg # of iterations =  3.0

     total cpu time spent up to now is      228.6 secs

     total energy              =   -2990.53155079 Ry
     Harris-Foulkes estimate   =   -2990.53155098 Ry
     estimated scf accuracy    <       0.00000042 Ry

     iteration #  9     ecut=    50.00 Ry     beta=0.70
     Davidson diagonalization with overlap
     ethr =  1.65E-10,  avg # of iterations =  3.0

     total cpu time spent up to now is      247.1 secs

     total energy              =   -2990.53155080 Ry
     Harris-Foulkes estimate   =   -2990.53155089 Ry
     estimated scf accuracy    <       0.00000015 Ry

     iteration # 10     ecut=    50.00 Ry     beta=0.70
     Davidson diagonalization with overlap
     ethr =  5.84E-11,  avg # of iterations =  3.0

     total cpu time spent up to now is      264.7 secs

     total energy              =   -2990.53155078 Ry
     Harris-Foulkes estimate   =   -2990.53155083 Ry
     estimated scf accuracy    <       0.00000006 Ry

     iteration # 11     ecut=    50.00 Ry     beta=0.70
     Davidson diagonalization with overlap
     ethr =  2.44E-11,  avg # of iterations =  2.0

     total cpu time spent up to now is      281.2 secs

     total energy              =   -2990.53155079 Ry
     Harris-Foulkes estimate   =   -2990.53155079 Ry
     estimated scf accuracy    <          1.8E-09 Ry

     iteration # 12     ecut=    50.00 Ry     beta=0.70
     Davidson diagonalization with overlap
     ethr =  7.15E-13,  avg # of iterations =  3.0

     total cpu time spent up to now is      305.3 secs

     total energy              =   -2990.53155079 Ry
     Harris-Foulkes estimate   =   -2990.53155079 Ry
     estimated scf accuracy    <          1.3E-09 Ry

     iteration # 13     ecut=    50.00 Ry     beta=0.70
     Davidson diagonalization with overlap
     ethr =  4.92E-13,  avg # of iterations =  2.8

     total cpu time spent up to now is      323.5 secs

     End of self-consistent calculation

          k = 0.2500 0.2500 0.2500 ( 52563 PWs)   bands (ev):

    -5.6250  -5.0991  -5.0964  -5.0938  -4.5994  -4.5965  -4.5942  -4.1621
    -4.0656  -4.0630  -4.0604  -3.6568  -3.6513  -3.6460  -3.6454  -3.6438
    -3.6421  -3.4600  -3.4543  -3.4520  -2.9597  -2.9564  -2.9540  -2.5955
    -2.5876  -2.5858  -2.4288  -2.4259  -2.4196  -2.4194  -2.4168  -2.4159
    -0.8857  -0.8827  -0.8764  -0.8755  -0.8738  -0.8729  -0.7853  -0.7777
    -0.7756  -0.6642  -0.6617  -0.6554  -0.5854  -0.5808  -0.5749   0.1226
     0.2031   0.2081   0.2125   0.2157   0.2163   0.2179   1.0777   1.0834
     1.0878   1.4166   1.4171   1.4214   2.0252   2.0269   2.0293   2.0301
     2.0309   2.0332   2.0877   2.0887   2.0914   2.6353   2.6388   2.6403
     2.7393   2.7415   2.7434   2.7458   2.7470   2.7497   2.7964   2.7977
     2.8023   3.1018   3.1048   3.1076   3.1092   3.1096   3.1115   3.3709
     3.3722   3.3756   3.3858   3.3864   3.3902   3.7288   3.7330   3.7357
     3.7494   3.7545   3.7565   3.8380   3.8414   3.8426   4.1041   4.1065
     4.1120   4.1142   4.1155   4.1166   4.1523   4.1558   4.1571   4.4089
     4.4711   4.4719   4.4770   4.7135   4.7172   4.7188   4.7695   4.7745
     4.7783   4.9350   4.9400   5.2424   5.2474   5.2493   5.7235   5.7293
     6.9345   6.9383   6.9410   7.3732   7.3781   7.3812   7.6002   7.8597
     7.8644   7.8663   7.9870   7.9890   7.9948   8.1491   8.1520   8.1545
     8.1666   8.1685   8.1745   8.3935   8.3968   8.3998   8.4024   8.4049
     8.4059   8.4507

          k =-0.2500-0.2500 0.2500 ( 52563 PWs)   bands (ev):

    -5.6250  -5.0990  -5.0970  -5.0930  -4.5993  -4.5973  -4.5936  -4.1631
    -4.0662  -4.0641  -4.0599  -3.6558  -3.6504  -3.6479  -3.6455  -3.6447
    -3.6380  -3.4592  -3.4549  -3.4503  -2.9622  -2.9589  -2.9546  -2.5944
    -2.5892  -2.5842  -2.4291  -2.4237  -2.4220  -2.4197  -2.4181  -2.4120
    -0.8872  -0.8813  -0.8798  -0.8753  -0.8748  -0.8713  -0.7858  -0.7804
    -0.7752  -0.6678  -0.6623  -0.6563  -0.5837  -0.5756  -0.5690   0.1263
     0.2011   0.2073   0.2090   0.2142   0.2158   0.2172   1.0790   1.0855
     1.0915   1.4139   1.4184   1.4227   2.0240   2.0266   2.0291   2.0298
     2.0307   2.0343   2.0851   2.0884   2.0913   2.6371   2.6402   2.6430
     2.7376   2.7390   2.7418   2.7454   2.7460   2.7488   2.7927   2.7960
     2.8013   3.1022   3.1052   3.1071   3.1079   3.1100   3.1131   3.3693
     3.3714   3.3747   3.3820   3.3864   3.3900   3.7310   3.7351   3.7375
     3.7523   3.7562   3.7610   3.8366   3.8401   3.8419   4.1058   4.1121
     4.1132   4.1153   4.1171   4.1218   4.1505   4.1544   4.1565   4.4129
     4.4676   4.4708   4.4746   4.7112   4.7148   4.7174   4.7728   4.7788
     4.7854   4.9319   4.9406   5.2391   5.2441   5.2476   5.7191   5.7289
     6.9330   6.9356   6.9400   7.3716   7.3786   7.3800   7.5987   7.8569
     7.8632   7.8654   7.9871   7.9917   7.9961   8.1473   8.1517   8.1547
     8.1665   8.1679   8.1735   8.3947   8.3982   8.4017   8.4042   8.4066
     8.4086   8.4482

          k =-0.2500 0.2500-0.2500 ( 52563 PWs)   bands (ev):

    -5.6251  -5.0988  -5.0963  -5.0936  -4.5992  -4.5970  -4.5941  -4.1642
    -4.0662  -4.0637  -4.0612  -3.6522  -3.6505  -3.6492  -3.6468  -3.6432
    -3.6376  -3.4577  -3.4553  -3.4494  -2.9632  -2.9607  -2.9575  -2.5925
    -2.5909  -2.5832  -2.4258  -2.4242  -2.4230  -2.4207  -2.4161  -2.4130
    -0.8850  -0.8828  -0.8812  -0.8780  -0.8748  -0.8712  -0.7855  -0.7829
    -0.7753  -0.6684  -0.6630  -0.6603  -0.5775  -0.5714  -0.5665   0.1300
     0.2021   0.2048   0.2070   0.2107   0.2124   0.2186   1.0829   1.0874
     1.0930   1.4152   1.4195   1.4201   2.0246   2.0269   2.0286   2.0301
     2.0316   2.0324   2.0848   2.0877   2.0887   2.6399   2.6408   2.6454
     2.7358   2.7383   2.7413   2.7436   2.7453   2.7465   2.7911   2.7951
     2.7965   3.1037   3.1045   3.1065   3.1073   3.1110   3.1134   3.3680
     3.3712   3.3718   3.3829   3.3860   3.3866   3.7337   3.7362   3.7398
     3.7561   3.7571   3.7657   3.8363   3.8376   3.8412   4.1123   4.1133
     4.1138   4.1164   4.1214   4.1244   4.1499   4.1516   4.1559   4.4172
     4.4659   4.4696   4.4703   4.7104   4.7117   4.7154   4.7790   4.7836
     4.7888   4.9325   4.9376   5.2379   5.2397   5.2448   5.7188   5.7244
     6.9323   6.9334   6.9378   7.3722   7.3753   7.3803   7.5972   7.8571
     7.8593   7.8641   7.9884   7.9946   7.9964   8.1485   8.1504   8.1537
     8.1660   8.1691   8.1703   8.3983   8.4006   8.4019   8.4056   8.4079
     8.4107   8.4458

          k = 0.2500-0.2500-0.2500 ( 52563 PWs)   bands (ev):

    -5.6250  -5.1004  -5.0959  -5.0927  -4.6009  -4.5963  -4.5930  -4.1633
    -4.0674  -4.0628  -4.0598  -3.6577  -3.6480  -3.6470  -3.6463  -3.6440
    -3.6393  -3.4594  -3.4548  -3.4502  -2.9630  -2.9582  -2.9545  -2.5943
    -2.5892  -2.5842  -2.4303  -2.4218  -2.4209  -2.4202  -2.4182  -2.4132
    -0.8874  -0.8815  -0.8788  -0.8776  -0.8758  -0.8686  -0.7859  -0.7802
    -0.7754  -0.6678  -0.6623  -0.6564  -0.5808  -0.5773  -0.5701   0.1263
     0.2012   0.2054   0.2099   0.2113   0.2145   0.2222   1.0811   1.0851
     1.0899   1.4143   1.4183   1.4224   2.0244   2.0271   2.0281   2.0293
     2.0320   2.0337   2.0854   2.0879   2.0916   2.6371   2.6402   2.6429
     2.7364   2.7393   2.7431   2.7450   2.7466   2.7482   2.7922   2.7974
     2.8001   3.0997   3.1058   3.1071   3.1086   3.1096   3.1146   3.3691
     3.3713   3.3743   3.3823   3.3864   3.3905   3.7305   3.7345   3.7382
     3.7524   3.7561   3.7616   3.8361   3.8392   3.8433   4.1067   4.1103
     4.1141   4.1146   4.1174   4.1224   4.1499   4.1532   4.1581   4.4129
     4.4676   4.4708   4.4746   4.7105   4.7141   4.7186   4.7751   4.7784
     4.7835   4.9319   4.9406   5.2384   5.2431   5.2493   5.7191   5.7289
     6.9330   6.9356   6.9401   7.3726   7.3754   7.3822   7.5987   7.8583
     7.8605   7.8668   7.9871   7.9918   7.9961   8.1482   8.1510   8.1544
     8.1668   8.1679   8.1731   8.3942   8.3984   8.4019   8.4038   8.4060
     8.4099   8.4482

     the Fermi energy is     6.3278 ev

!    total energy              =   -2990.53155080 Ry
     Harris-Foulkes estimate   =   -2990.53155079 Ry
     estimated scf accuracy    <          3.6E-10 Ry

     total all-electron energy =    -37124.667104 Ry

     The total energy is the sum of the following terms:

     one-electron contribution =     178.60659954 Ry
     hartree contribution      =      35.70141373 Ry
     xc contribution           =    -391.44199809 Ry
     ewald contribution        =    -534.00625984 Ry
     one-center paw contrib.   =   -2279.39130614 Ry
     smearing contrib. (-TS)   =       0.00000000 Ry

     convergence has been achieved in  13 iterations

     Forces acting on atoms (Ry/au):

     atom    1 type  1   force =    -0.01592061    0.00002766   -0.00025194
     atom    2 type  1   force =    -0.00002869    0.00003708    0.00005934
     atom    3 type  1   force =     0.00001780    0.00005176    0.00005870
     atom    4 type  1   force =    -0.00248849    0.00248163   -0.00381193
     atom    5 type  1   force =     0.00002360    0.00003079    0.00002083
     atom    6 type  1   force =    -0.00003576    0.00002696   -0.00002860
     atom    7 type  1   force =    -0.00050192    0.00002884   -0.00002806
     atom    8 type  1   force =    -0.00001326    0.00003803    0.00001255
     atom    9 type  1   force =    -0.00048961    0.00016280    0.00017446
     atom   10 type  1   force =     0.00270552    0.00271316   -0.00392006
     atom   11 type  1   force =    -0.00049552    0.00013857   -0.00036523
     atom   12 type  1   force =     0.00005070    0.00004925    0.00005071
     atom   13 type  1   force =    -0.00049917   -0.00008299    0.00008322
     atom   14 type  1   force =     0.00003957    0.00002832    0.00002231
     atom   15 type  1   force =    -0.00049697   -0.00008262   -0.00009259
     atom   16 type  1   force =     0.00002626    0.00001581   -0.00003541
     atom   17 type  1   force =     0.00020395   -0.00013768   -0.00002856
     atom   18 type  1   force =     0.00018811   -0.00015291   -0.00017130
     atom   19 type  1   force =     0.00000400   -0.00005932   -0.00001715
     atom   20 type  1   force =    -0.00266199   -0.00271467   -0.00385298
     atom   21 type  1   force =     0.00020066    0.00007880   -0.00020688
     atom   22 type  1   force =     0.00021139    0.00008900    0.00020633
     atom   23 type  1   force =     0.00001780   -0.00001663    0.00005129
     atom   24 type  1   force =     0.00000439   -0.00002880   -0.00006361
     atom   25 type  1   force =     0.00026888    0.00017609   -0.00005083
     atom   26 type  1   force =     0.00271886   -0.00271659   -0.00392484
     atom   27 type  1   force =     0.00025928   -0.00025599   -0.00014252
     atom   28 type  1   force =     0.00028917    0.00019594    0.00017254
     atom   29 type  1   force =     0.00006945   -0.00010689   -0.00003805
     atom   30 type  1   force =     0.00008085    0.00003743    0.00000277
     atom   31 type  1   force =     0.00007326    0.00004702    0.00003075
     atom   32 type  1   force =     0.00007187   -0.00010226   -0.00001896
     atom   33 type  1   force =     0.00021136    0.00014489   -0.00020697
     atom   34 type  1   force =     0.00002271   -0.00008681   -0.00020983
     atom   35 type  1   force =    -0.00005009    0.00003635   -0.00001811
     atom   36 type  1   force =     0.00001557    0.00004126   -0.00000385
     atom   37 type  1   force =    -0.00020069    0.00013518   -0.00020448
     atom   38 type  1   force =     0.00016674   -0.00007110   -0.00018197
     atom   39 type  1   force =     0.00006482    0.00004743   -0.00000437
     atom   40 type  1   force =     0.00385121    0.00269613    0.00266245
     atom   41 type  1   force =    -0.00012576   -0.00015263    0.00049077
     atom   42 type  1   force =     0.00382037   -0.00259396   -0.00218168
     atom   43 type  1   force =     0.00013560   -0.00013427    0.00049665
     atom   44 type  1   force =     0.00005335    0.00007562    0.00047780
     atom   45 type  1   force =     0.00001716   -0.00003692   -0.00002529
     atom   46 type  1   force =    -0.00007061   -0.00004051   -0.00004014
     atom   47 type  1   force =    -0.00001144   -0.00004038   -0.00003164
     atom   48 type  1   force =     0.00026523   -0.00001841   -0.00002756
     atom   49 type  1   force =    -0.00005827   -0.00003718   -0.00000326
     atom   50 type  1   force =     0.00002808   -0.00002820    0.01591878
     atom   51 type  1   force =     0.00381325   -0.00248061    0.00295743
     atom   52 type  1   force =    -0.00001284   -0.00003726   -0.00001640
     atom   53 type  1   force =     0.00025242   -0.00002785    0.00003456
     atom   54 type  1   force =    -0.00002129   -0.00003118    0.00000862
     atom   55 type  1   force =    -0.00005826   -0.00005142    0.00001225
     atom   56 type  1   force =     0.00002806   -0.00002857    0.00003333
     atom   57 type  1   force =    -0.00004933   -0.00002525   -0.00008006
     atom   58 type  1   force =     0.00014210    0.00026148   -0.00026516
     atom   59 type  1   force =     0.00024364    0.00010493   -0.00007090
     atom   60 type  1   force =    -0.00013589   -0.00020139   -0.00026915
     atom   61 type  1   force =     0.00382150    0.00255784   -0.00252443
     atom   62 type  1   force =     0.00009750   -0.00018941   -0.00026933
     atom   63 type  1   force =    -0.00006760   -0.00003966   -0.00009392
     atom   64 type  1   force =    -0.00008200    0.00025429   -0.00026041

     Total force =     0.027200     Total SCF correction =     0.000037

     Writing output data file pwscf.save
 
     init_run     :      8.77s CPU      8.98s WALL (       1 calls)
     electrons    :    288.03s CPU    313.91s WALL (       1 calls)
     forces       :      4.09s CPU      4.20s WALL (       1 calls)

     Called by init_run:
     wfcinit      :      8.17s CPU      8.30s WALL (       1 calls)
     potinit      :      0.24s CPU      0.24s WALL (       1 calls)

     Called by electrons:
     c_bands      :    259.90s CPU    275.42s WALL (      14 calls)
     sum_band     :     24.01s CPU     24.19s WALL (      14 calls)
     v_of_rho     :      0.69s CPU      0.70s WALL (      14 calls)
     newd         :      0.98s CPU      1.01s WALL (      14 calls)
     PAW_pot      :      2.31s CPU      2.31s WALL (      14 calls)
     mix_rho      :      0.32s CPU      0.33s WALL (      14 calls)

     Called by c_bands:
     init_us_2    :      2.70s CPU      2.72s WALL (     120 calls)
     cegterg      :    251.94s CPU    255.79s WALL (      56 calls)

     Called by sum_band:
     sum_band:bec :      0.05s CPU      0.05s WALL (      56 calls)
     addusdens    :      1.01s CPU      1.10s WALL (      14 calls)

     Called by *egterg:
     h_psi        :    117.85s CPU    118.16s WALL (     258 calls)
     s_psi        :     30.35s CPU     30.40s WALL (     258 calls)
     g_psi        :      1.05s CPU      1.06s WALL (     198 calls)
     cdiaghg      :     40.08s CPU     40.11s WALL (     250 calls)

     Called by h_psi:
     add_vuspsi   :     30.39s CPU     30.43s WALL (     258 calls)

     General routines
     calbec       :     46.86s CPU     46.95s WALL (     330 calls)
     fft          :      0.44s CPU      0.44s WALL (     195 calls)
     fftw         :     57.99s CPU     58.14s WALL (   56998 calls)
     davcio       :      0.00s CPU      0.04s WALL (       4 calls)
 
     Parallel routines
     fft_scatter  :     13.84s CPU     13.72s WALL (   57193 calls)
 
     PWSCF        :  5m 1.21s CPU     5m40.26s WALL

 
   This run was terminated on:  13:54:22   3Feb2016            

=------------------------------------------------------------------------------=
   JOB DONE.
=------------------------------------------------------------------------------=
