<?xml version="1.0" encoding="ISO-8859-1"?>
<modeling>
 <generator>
  <i name="program" type="string">vasp </i>
  <i name="version" type="string">5.4.1  </i>
  <i name="subversion" type="string">05Feb16 (build Mar 26 2016 11:58:25) complex                          parallel </i>
  <i name="platform" type="string">IFC91_ompi </i>
  <i name="date" type="string">2017 03 12 </i>
  <i name="time" type="string">12:13:56 </i>
 </generator>
 <incar>
  <i type="string" name="PREC">accurate</i>
  <i type="int" name="IALGO">    38</i>
  <i type="logical" name="ADDGRID"> T  </i>
  <i type="int" name="NELMIN">     5</i>
  <i type="int" name="IBRION">    -1</i>
  <i name="EDIFF">      0.00000001</i>
  <i name="ENCUT">    300.00000000</i>
  <i type="logical" name="LREAL"> F  </i>
  <i type="int" name="ISMEAR">     0</i>
  <i name="SIGMA">      0.05000000</i>
  <i type="logical" name="LWAVE"> F  </i>
  <i type="logical" name="LCHARG"> F  </i>
  <v type="int" name="KPOINT_BSE">    -1     0     0     0</v>
 </incar>
 <kpoints>
  <generation param="Monkhorst-Pack">
   <v type="int" name="divisions">       2        2        2 </v>
   <v name="usershift">      0.00000000       0.00000000       0.00000000 </v>
   <v name="genvec1">      0.50000000       0.00000000       0.00000000 </v>
   <v name="genvec2">      0.00000000       0.50000000       0.00000000 </v>
   <v name="genvec3">      0.00000000       0.00000000       0.50000000 </v>
   <v name="shift">      0.50000000       0.50000000       0.50000000 </v>
  </generation>
  <varray name="kpointlist" >
   <v>       0.25000000       0.25000000       0.25000000 </v>
   <v>      -0.25000000       0.25000000       0.25000000 </v>
  </varray>
  <varray name="weights" >
   <v>       0.50000000 </v>
   <v>       0.50000000 </v>
  </varray>
 </kpoints>
 <parameters>
  <separator name="general" >
   <i type="string" name="SYSTEM">unknown system</i>
   <i type="logical" name="LCOMPAT"> F  </i>
  </separator>
  <separator name="electronic" >
   <i type="string" name="PREC">accura</i>
   <i name="ENMAX">    300.00000000</i>
   <i name="ENAUG">    322.06900000</i>
   <i name="EDIFF">      0.00000001</i>
   <i type="int" name="IALGO">    38</i>
   <i type="int" name="IWAVPR">    10</i>
   <i type="int" name="NBANDS">   164</i>
   <i name="NELECT">    256.00000000</i>
   <i type="int" name="TURBO">     0</i>
   <i type="int" name="IRESTART">     0</i>
   <i type="int" name="NREBOOT">     0</i>
   <i type="int" name="NMIN">     0</i>
   <i name="EREF">      0.00000000</i>
   <separator name="electronic smearing" >
    <i type="int" name="ISMEAR">     0</i>
    <i name="SIGMA">      0.05000000</i>
    <i name="KSPACING">      0.50000000</i>
    <i type="logical" name="KGAMMA"> T  </i>
   </separator>
   <separator name="electronic projectors" >
    <i type="logical" name="LREAL"> F  </i>
    <v name="ROPT">      0.00000000</v>
    <i type="int" name="LMAXPAW">  -100</i>
    <i type="int" name="LMAXMIX">     2</i>
    <i type="logical" name="NLSPLINE"> F  </i>
   </separator>
   <separator name="electronic startup" >
    <i type="int" name="ISTART">     0</i>
    <i type="int" name="ICHARG">     2</i>
    <i type="int" name="INIWAV">     1</i>
   </separator>
   <separator name="electronic spin" >
    <i type="int" name="ISPIN">     1</i>
    <i type="logical" name="LNONCOLLINEAR"> F  </i>
    <v name="MAGMOM">      1.00000000      1.00000000      1.00000000      1.00000000      1.00000000      1.00000000      1.00000000      1.00000000      1.00000000      1.00000000      1.00000000      1.00000000      1.00000000      1.00000000      1.00000000      1.00000000      1.00000000      1.00000000      1.00000000      1.00000000
      1.00000000      1.00000000      1.00000000      1.00000000      1.00000000      1.00000000      1.00000000      1.00000000      1.00000000      1.00000000      1.00000000      1.00000000      1.00000000      1.00000000      1.00000000      1.00000000      1.00000000      1.00000000      1.00000000      1.00000000
      1.00000000      1.00000000      1.00000000      1.00000000      1.00000000      1.00000000      1.00000000      1.00000000      1.00000000      1.00000000      1.00000000      1.00000000      1.00000000      1.00000000      1.00000000      1.00000000      1.00000000      1.00000000      1.00000000      1.00000000
      1.00000000      1.00000000      1.00000000      1.00000000</v>
    <i name="NUPDOWN">     -1.00000000</i>
    <i type="logical" name="LSORBIT"> F  </i>
    <v name="SAXIS">      0.00000000      0.00000000      1.00000000</v>
    <i type="logical" name="LSPIRAL"> F  </i>
    <v name="QSPIRAL">      0.00000000      0.00000000      0.00000000</v>
    <i type="logical" name="LZEROZ"> F  </i>
   </separator>
   <separator name="electronic exchange-correlation" >
    <i type="logical" name="LASPH"> F  </i>
    <i type="logical" name="LMETAGGA"> F  </i>
   </separator>
   <separator name="electronic convergence" >
    <i type="int" name="NELM">    60</i>
    <i type="int" name="NELMDL">    -5</i>
    <i type="int" name="NELMIN">     5</i>
    <i name="ENINI">    300.00000000</i>
    <separator name="electronic convergence detail" >
     <i type="logical" name="LDIAG"> T  </i>
     <i type="logical" name="LSUBROT"> F  </i>
     <i name="WEIMIN">      0.00000000</i>
     <i name="EBREAK">      0.00000000</i>
     <i name="DEPER">      0.30000000</i>
     <i type="int" name="NRMM">     4</i>
     <i name="TIME">      0.40000000</i>
    </separator>
   </separator>
   <separator name="electronic mixer" >
    <i name="AMIX">      0.40000000</i>
    <i name="BMIX">      1.00000000</i>
    <i name="AMIN">      0.10000000</i>
    <i name="AMIX_MAG">      1.60000000</i>
    <i name="BMIX_MAG">      1.00000000</i>
    <separator name="electronic mixer details" >
     <i type="int" name="IMIX">     4</i>
     <i type="logical" name="MIXFIRST"> F  </i>
     <i type="int" name="MAXMIX">   -45</i>
     <i name="WC">    100.00000000</i>
     <i type="int" name="INIMIX">     1</i>
     <i type="int" name="MIXPRE">     1</i>
     <i type="int" name="MREMOVE">     5</i>
    </separator>
   </separator>
   <separator name="electronic dipolcorrection" >
    <i type="logical" name="LDIPOL"> F  </i>
    <i type="logical" name="LMONO"> F  </i>
    <i type="int" name="IDIPOL">     0</i>
    <i name="EPSILON">      1.00000000</i>
    <v name="DIPOL">   -100.00000000   -100.00000000   -100.00000000</v>
    <i name="EFIELD">      0.00000000</i>
   </separator>
  </separator>
  <separator name="grids" >
   <i type="int" name="NGX">    64</i>
   <i type="int" name="NGY">    64</i>
   <i type="int" name="NGZ">    64</i>
   <i type="int" name="NGXF">   128</i>
   <i type="int" name="NGYF">   128</i>
   <i type="int" name="NGZF">   128</i>
   <i type="logical" name="ADDGRID"> T  </i>
  </separator>
  <separator name="ionic" >
   <i type="int" name="NSW">     0</i>
   <i type="int" name="IBRION">    -1</i>
   <i type="int" name="ISIF">     2</i>
   <i name="PSTRESS">      0.00000000</i>
   <i name="EDIFFG">      0.00000010</i>
   <i type="int" name="NFREE">     0</i>
   <i name="POTIM">      0.50000000</i>
   <i name="SMASS">     -3.00000000</i>
   <i name="SCALEE">      1.00000000</i>
  </separator>
  <separator name="ionic md" >
   <i name="TEBEG">      0.00010000</i>
   <i name="TEEND">      0.00010000</i>
   <i type="int" name="NBLOCK">     1</i>
   <i type="int" name="KBLOCK">     1</i>
   <i type="int" name="NPACO">   256</i>
   <i name="APACO">     16.00000000</i>
  </separator>
  <separator name="symmetry" >
   <i type="int" name="ISYM">     2</i>
   <i name="SYMPREC">      0.00001000</i>
  </separator>
  <separator name="dos" >
   <i type="logical" name="LORBIT"> F  </i>
   <v name="RWIGS">     -1.00000000</v>
   <i type="int" name="NEDOS">   301</i>
   <i name="EMIN">     10.00000000</i>
   <i name="EMAX">    -10.00000000</i>
   <i name="EFERMI">      0.00000000</i>
  </separator>
  <separator name="writing" >
   <i type="int" name="NWRITE">     2</i>
   <i type="logical" name="LWAVE"> F  </i>
   <i type="logical" name="LCHARG"> F  </i>
   <i type="logical" name="LPARD"> F  </i>
   <i type="logical" name="LVTOT"> F  </i>
   <i type="logical" name="LVHAR"> F  </i>
   <i type="logical" name="LELF"> F  </i>
   <i type="logical" name="LOPTICS"> F  </i>
   <v name="STM">      0.00000000      0.00000000      0.00000000      0.00000000      0.00000000      0.00000000      0.00000000</v>
  </separator>
  <separator name="performance" >
   <i type="int" name="NPAR">     4</i>
   <i type="int" name="NSIM">     4</i>
   <i type="int" name="NBLK">    -1</i>
   <i type="logical" name="LPLANE"> T  </i>
   <i type="logical" name="LSCALAPACK"> T  </i>
   <i type="logical" name="LSCAAWARE"> F  </i>
   <i type="logical" name="LSCALU"> F  </i>
   <i type="logical" name="LASYNC"> F  </i>
   <i type="logical" name="LORBITALREAL"> F  </i>
  </separator>
  <separator name="miscellaneous" >
   <i type="int" name="IDIOT">     3</i>
   <i type="logical" name="LMUSIC"> F  </i>
   <v name="POMASS">     28.08500000</v>
   <v name="DARWINR">      0.00000000</v>
   <v name="DARWINV">      1.00000000</v>
   <i type="logical" name="LCORR"> T  </i>
  </separator>
  <i type="logical" name="GGA_COMPAT"> T  </i>
  <i type="logical" name="LBERRY"> F  </i>
  <i type="int" name="ICORELEVEL">     0</i>
  <i type="logical" name="LDAU"> F  </i>
  <i type="int" name="I_CONSTRAINED_M">     0</i>
  <separator name="electronic exchange-correlation" >
   <i type="string" name="GGA">--</i>
   <i type="int" name="VOSKOWN">     0</i>
   <i type="logical" name="LHFCALC"> F  </i>
   <i type="string" name="PRECFOCK"></i>
   <i type="logical" name="LSYMGRAD"> F  </i>
   <i type="logical" name="LHFONE"> F  </i>
   <i type="logical" name="LRHFCALC"> F  </i>
   <i type="logical" name="LTHOMAS"> F  </i>
   <i type="logical" name="LMODELHF"> F  </i>
   <i name="ENCUT4O">     -1.00000000</i>
   <i type="int" name="EXXOEP">     0</i>
   <i type="int" name="FOURORBIT">     0</i>
   <i name="AEXX">      0.00000000</i>
   <i name="HFALPHA">      0.00000000</i>
   <i name="MCALPHA">      0.00000000</i>
   <i name="ALDAX">      1.00000000</i>
   <i name="AGGAX">      1.00000000</i>
   <i name="ALDAC">      1.00000000</i>
   <i name="AGGAC">      1.00000000</i>
   <i type="int" name="NKREDX">     1</i>
   <i type="int" name="NKREDY">     1</i>
   <i type="int" name="NKREDZ">     1</i>
   <i type="logical" name="SHIFTRED"> F  </i>
   <i type="logical" name="ODDONLY"> F  </i>
   <i type="logical" name="EVENONLY"> F  </i>
   <i type="int" name="LMAXFOCK">     0</i>
   <i type="int" name="NMAXFOCKAE">     0</i>
   <i type="logical" name="LFOCKAEDFT"> F  </i>
   <i name="HFSCREEN">      0.00000000</i>
   <i name="HFSCREENC">      0.00000000</i>
   <i type="int" name="NBANDSGWLOW">     0</i>
  </separator>
  <separator name="vdW DFT" >
   <i type="logical" name="LUSE_VDW"> F  </i>
   <i name="Zab_VDW">     -0.84910000</i>
   <i name="PARAM1">      0.12340000</i>
   <i name="PARAM2">      1.00000000</i>
   <i name="PARAM3">      0.00000000</i>
  </separator>
  <separator name="model GW" >
   <i type="int" name="MODEL_GW">     0</i>
   <i name="MODEL_EPS0">     12.24990743</i>
   <i name="MODEL_ALPHA">      1.00000000</i>
  </separator>
  <separator name="linear response parameters" >
   <i type="logical" name="LEPSILON"> F  </i>
   <i type="logical" name="LRPA"> F  </i>
   <i type="logical" name="LNABLA"> F  </i>
   <i type="logical" name="LVEL"> F  </i>
   <i type="int" name="KINTER">     0</i>
   <i name="CSHIFT">      0.10000000</i>
   <i name="OMEGAMAX">     -1.00000000</i>
   <i name="DEG_THRESHOLD">      0.00200000</i>
  </separator>
  <separator name="orbital magnetization" >
   <i type="logical" name="NUCIND"> F  </i>
   <v name="MAGPOS">      0.00000000      0.00000000      0.00000000</v>
   <i type="logical" name="LNICSALL"> T  </i>
   <i type="logical" name="ORBITALMAG"> F  </i>
   <i type="logical" name="LMAGBLOCH"> F  </i>
   <i type="logical" name="LCHIMAG"> F  </i>
   <i type="logical" name="LGAUGE"> T  </i>
   <i type="int" name="MAGATOM">     0</i>
   <v name="MAGDIPOL">      0.00000000      0.00000000      0.00000000</v>
   <v name="AVECCONST">      0.00000000      0.00000000      0.00000000</v>
  </separator>
  <separator name="response functions" >
   <i type="logical" name="LADDER"> F  </i>
   <i type="logical" name="LFXC"> F  </i>
   <i type="logical" name="LHARTREE"> T  </i>
   <i type="int" name="IBSE">     0</i>
   <v type="int" name="KPOINT">    -1     0     0     0</v>
   <i type="logical" name="LTCTE"> F  </i>
   <i type="logical" name="LTETE"> F  </i>
   <i type="logical" name="LTRIPLET"> F  </i>
   <i type="logical" name="LFXCEPS"> F  </i>
   <i type="logical" name="LFXHEG"> F  </i>
   <i type="int" name="NATURALO">     0</i>
   <i type="logical" name="L2ORDER"> F  </i>
   <i type="logical" name="LUSEW"> F  </i>
   <i name="ENCUTGW">     -2.00000000</i>
   <i name="ENCUTGWSOFT">     -2.00000000</i>
   <i name="ENCUTLF">     -1.00000000</i>
   <i type="int" name="LMAXMP2">    -1</i>
   <i name="SCISSOR">      0.00000000</i>
   <i type="int" name="NOMEGA">     0</i>
   <i type="int" name="NOMEGAR">     0</i>
   <i type="int" name="NBANDSGW">    -1</i>
   <i type="int" name="NBANDSO">    -1</i>
   <i type="int" name="NBANDSV">    -1</i>
   <i type="int" name="NELM">     1</i>
   <i type="int" name="NELMHF">     1</i>
   <i type="int" name="DIM">     3</i>
   <i type="int" name="ANTIRES">     0</i>
   <i name="OMEGAMAX">    -30.00000000</i>
   <i name="OMEGAMIN">    -30.00000000</i>
   <i name="OMEGATL">   -200.00000000</i>
   <i type="int" name="OMEGAGRID">     0</i>
   <i name="CSHIFT">     -0.10000000</i>
   <i type="logical" name="SELFENERGY"> F  </i>
   <i type="logical" name="LSPECTRAL"> F  </i>
   <i type="logical" name="LSPECTRALGW"> F  </i>
   <i type="logical" name="LSINGLES"> F  </i>
   <i type="logical" name="LFERMIGW"> F  </i>
   <i type="logical" name="ODDONLYGW"> F  </i>
   <i type="logical" name="EVENONLYGW"> F  </i>
   <i type="int" name="NKREDLFX">     1</i>
   <i type="int" name="NKREDLFY">     1</i>
   <i type="int" name="NKREDLFZ">     1</i>
   <i type="int" name="MAXMEM">  1800</i>
   <i type="int" name="TELESCOPE">     0</i>
   <i type="int" name="TAUPAR">     1</i>
   <i type="int" name="OMEGAPAR">    -1</i>
   <i name="LAMBDA">      1.00000000</i>
  </separator>
  <separator name="External order field" >
   <i name="OFIELD_KAPPA">      0.00000000</i>
   <v name="OFIELD_K">      0.00000000      0.00000000      0.00000000</v>
   <i name="OFIELD_Q6_NEAR">      0.00000000</i>
   <i name="OFIELD_Q6_FAR">      0.00000000</i>
   <i name="OFIELD_A">      0.00000000</i>
  </separator>
 </parameters>
 <atominfo>
  <atoms>      64 </atoms>
  <types>       1 </types>
  <array name="atoms" >
   <dimension dim="1">ion</dimension>
   <field type="string">element</field>
   <field type="int">atomtype</field>
   <set>
    <rc><c>Si</c><c>   1</c></rc>
    <rc><c>Si</c><c>   1</c></rc>
    <rc><c>Si</c><c>   1</c></rc>
    <rc><c>Si</c><c>   1</c></rc>
    <rc><c>Si</c><c>   1</c></rc>
    <rc><c>Si</c><c>   1</c></rc>
    <rc><c>Si</c><c>   1</c></rc>
    <rc><c>Si</c><c>   1</c></rc>
    <rc><c>Si</c><c>   1</c></rc>
    <rc><c>Si</c><c>   1</c></rc>
    <rc><c>Si</c><c>   1</c></rc>
    <rc><c>Si</c><c>   1</c></rc>
    <rc><c>Si</c><c>   1</c></rc>
    <rc><c>Si</c><c>   1</c></rc>
    <rc><c>Si</c><c>   1</c></rc>
    <rc><c>Si</c><c>   1</c></rc>
    <rc><c>Si</c><c>   1</c></rc>
    <rc><c>Si</c><c>   1</c></rc>
    <rc><c>Si</c><c>   1</c></rc>
    <rc><c>Si</c><c>   1</c></rc>
    <rc><c>Si</c><c>   1</c></rc>
    <rc><c>Si</c><c>   1</c></rc>
    <rc><c>Si</c><c>   1</c></rc>
    <rc><c>Si</c><c>   1</c></rc>
    <rc><c>Si</c><c>   1</c></rc>
    <rc><c>Si</c><c>   1</c></rc>
    <rc><c>Si</c><c>   1</c></rc>
    <rc><c>Si</c><c>   1</c></rc>
    <rc><c>Si</c><c>   1</c></rc>
    <rc><c>Si</c><c>   1</c></rc>
    <rc><c>Si</c><c>   1</c></rc>
    <rc><c>Si</c><c>   1</c></rc>
    <rc><c>Si</c><c>   1</c></rc>
    <rc><c>Si</c><c>   1</c></rc>
    <rc><c>Si</c><c>   1</c></rc>
    <rc><c>Si</c><c>   1</c></rc>
    <rc><c>Si</c><c>   1</c></rc>
    <rc><c>Si</c><c>   1</c></rc>
    <rc><c>Si</c><c>   1</c></rc>
    <rc><c>Si</c><c>   1</c></rc>
    <rc><c>Si</c><c>   1</c></rc>
    <rc><c>Si</c><c>   1</c></rc>
    <rc><c>Si</c><c>   1</c></rc>
    <rc><c>Si</c><c>   1</c></rc>
    <rc><c>Si</c><c>   1</c></rc>
    <rc><c>Si</c><c>   1</c></rc>
    <rc><c>Si</c><c>   1</c></rc>
    <rc><c>Si</c><c>   1</c></rc>
    <rc><c>Si</c><c>   1</c></rc>
    <rc><c>Si</c><c>   1</c></rc>
    <rc><c>Si</c><c>   1</c></rc>
    <rc><c>Si</c><c>   1</c></rc>
    <rc><c>Si</c><c>   1</c></rc>
    <rc><c>Si</c><c>   1</c></rc>
    <rc><c>Si</c><c>   1</c></rc>
    <rc><c>Si</c><c>   1</c></rc>
    <rc><c>Si</c><c>   1</c></rc>
    <rc><c>Si</c><c>   1</c></rc>
    <rc><c>Si</c><c>   1</c></rc>
    <rc><c>Si</c><c>   1</c></rc>
    <rc><c>Si</c><c>   1</c></rc>
    <rc><c>Si</c><c>   1</c></rc>
    <rc><c>Si</c><c>   1</c></rc>
    <rc><c>Si</c><c>   1</c></rc>
   </set>
  </array>
  <array name="atomtypes" >
   <dimension dim="1">type</dimension>
   <field type="int">atomspertype</field>
   <field type="string">element</field>
   <field>mass</field>
   <field>valence</field>
   <field type="string">pseudopotential</field>
   <set>
    <rc><c>  64</c><c>Si</c><c>     28.08500000</c><c>      4.00000000</c><c>  PAW_PBE Si 05Jan2001                  </c></rc>
   </set>
  </array>
 </atominfo>
 <structure name="initialpos" >
  <crystal>
   <varray name="basis" >
    <v>      10.93252578       0.00000000       0.00000000 </v>
    <v>       0.00000000      10.93252578       0.00000000 </v>
    <v>       0.00000000       0.00000000      10.93252578 </v>
   </varray>
   <i name="volume">   1306.65679237 </i>
   <varray name="rec_basis" >
    <v>       0.09147017       0.00000000       0.00000000 </v>
    <v>       0.00000000       0.09147017       0.00000000 </v>
    <v>       0.00000000       0.00000000       0.09147017 </v>
   </varray>
  </crystal>
  <varray name="positions" >
   <v>       0.44024411       0.43750000       0.43750000 </v>
   <v>       0.93750000       0.43750000       0.43750000 </v>
   <v>       0.43750000       0.93750000       0.43750000 </v>
   <v>       0.93750000       0.93750000       0.43750000 </v>
   <v>       0.43750000       0.43750000       0.93750000 </v>
   <v>       0.93750000       0.43750000       0.93750000 </v>
   <v>       0.43750000       0.93750000       0.93750000 </v>
   <v>       0.93750000       0.93750000       0.93750000 </v>
   <v>       0.43750000       0.18750000       0.18750000 </v>
   <v>       0.93750000       0.18750000       0.18750000 </v>
   <v>       0.43750000       0.68750000       0.18750000 </v>
   <v>       0.93750000       0.68750000       0.18750000 </v>
   <v>       0.43750000       0.18750000       0.68750000 </v>
   <v>       0.93750000       0.18750000       0.68750000 </v>
   <v>       0.43750000       0.68750000       0.68750000 </v>
   <v>       0.93750000       0.68750000       0.68750000 </v>
   <v>       0.18475589       0.43750000       0.18750000 </v>
   <v>       0.68750000       0.43750000       0.18750000 </v>
   <v>       0.18750000       0.93750000       0.18750000 </v>
   <v>       0.68750000       0.93750000       0.18750000 </v>
   <v>       0.18750000       0.43750000       0.68750000 </v>
   <v>       0.68750000       0.43750000       0.68750000 </v>
   <v>       0.18750000       0.93750000       0.68750000 </v>
   <v>       0.68750000       0.93750000       0.68750000 </v>
   <v>       0.18750000       0.18750000       0.43750000 </v>
   <v>       0.68750000       0.18750000       0.43750000 </v>
   <v>       0.18750000       0.68750000       0.43750000 </v>
   <v>       0.68750000       0.68750000       0.43750000 </v>
   <v>       0.18750000       0.18750000       0.93750000 </v>
   <v>       0.68750000       0.18750000       0.93750000 </v>
   <v>       0.18750000       0.68750000       0.93750000 </v>
   <v>       0.68750000       0.68750000       0.93750000 </v>
   <v>       0.06250000       0.06250000       0.06250000 </v>
   <v>       0.56250000       0.06250000       0.06250000 </v>
   <v>       0.06250000       0.56250000       0.06250000 </v>
   <v>       0.56250000       0.56250000       0.06250000 </v>
   <v>       0.06250000       0.06250000       0.56250000 </v>
   <v>       0.56250000       0.06250000       0.56250000 </v>
   <v>       0.06250000       0.56250000       0.56250000 </v>
   <v>       0.56250000       0.56250000       0.56250000 </v>
   <v>       0.06250000       0.31250000       0.31250000 </v>
   <v>       0.56250000       0.31250000       0.31250000 </v>
   <v>       0.06250000       0.81250000       0.31250000 </v>
   <v>       0.56250000       0.81250000       0.31250000 </v>
   <v>       0.06250000       0.31250000       0.81250000 </v>
   <v>       0.56250000       0.31250000       0.81250000 </v>
   <v>       0.06250000       0.81250000       0.81250000 </v>
   <v>       0.56250000       0.81250000       0.81250000 </v>
   <v>       0.31250000       0.06250000       0.31250000 </v>
   <v>       0.81250000       0.06250000       0.31250000 </v>
   <v>       0.31250000       0.56250000       0.31250000 </v>
   <v>       0.81250000       0.56250000       0.31250000 </v>
   <v>       0.31250000       0.06250000       0.81250000 </v>
   <v>       0.81250000       0.06250000       0.81250000 </v>
   <v>       0.31250000       0.56250000       0.81250000 </v>
   <v>       0.81250000       0.56250000       0.81250000 </v>
   <v>       0.31250000       0.31250000       0.06250000 </v>
   <v>       0.81250000       0.31250000       0.06250000 </v>
   <v>       0.31250000       0.81250000       0.06250000 </v>
   <v>       0.81250000       0.81250000       0.06250000 </v>
   <v>       0.31250000       0.31250000       0.56250000 </v>
   <v>       0.81250000       0.31250000       0.56250000 </v>
   <v>       0.31250000       0.81250000       0.56250000 </v>
   <v>       0.81250000       0.81250000       0.56250000 </v>
  </varray>
 </structure>
 <calculation>
  <scstep>
   <time name="dav">    2.76    2.76</time>
   <time name="total">    3.02    3.02</time>
   <energy>
    <i name="alphaZ">    105.52440745 </i>
    <i name="ewald">  -7265.46858124 </i>
    <i name="hartreedc">   -361.71476983 </i>
    <i name="XCdc">   -597.75710865 </i>
    <i name="pawpsdc">   5639.92317535 </i>
    <i name="pawaedc">  -4513.95313856 </i>
    <i name="eentropy">     -0.00035501 </i>
    <i name="bandstr">    856.99003274 </i>
    <i name="atom">   6596.14994790 </i>
    <i name="e_fr_energy">    459.69361017 </i>
    <i name="e_wo_entrp">    459.69396518 </i>
    <i name="e_0_energy">    459.69378767 </i>
   </energy>
  </scstep>
  <scstep>
   <time name="dav">    3.14    3.14</time>
   <time name="total">    3.14    3.15</time>
   <energy>
    <i name="e_fr_energy">   -298.64806231 </i>
    <i name="e_wo_entrp">   -298.64806231 </i>
    <i name="e_0_energy">   -298.64806231 </i>
   </energy>
  </scstep>
  <scstep>
   <time name="dav">    3.21    3.21</time>
   <time name="total">    3.21    3.22</time>
   <energy>
    <i name="e_fr_energy">   -350.96703039 </i>
    <i name="e_wo_entrp">   -350.96703039 </i>
    <i name="e_0_energy">   -350.96703039 </i>
   </energy>
  </scstep>
  <scstep>
   <time name="dav">    3.20    3.20</time>
   <time name="total">    3.20    3.21</time>
   <energy>
    <i name="e_fr_energy">   -352.27347997 </i>
    <i name="e_wo_entrp">   -352.27347997 </i>
    <i name="e_0_energy">   -352.27347997 </i>
   </energy>
  </scstep>
  <scstep>
   <time name="dav">    3.15    3.15</time>
   <time name="total">    3.40    3.41</time>
   <energy>
    <i name="e_fr_energy">   -352.31292985 </i>
    <i name="e_wo_entrp">   -352.31292985 </i>
    <i name="e_0_energy">   -352.31292985 </i>
   </energy>
  </scstep>
  <scstep>
   <time name="dav">    3.09    3.09</time>
   <time name="total">    3.60    3.61</time>
   <energy>
    <i name="e_fr_energy">   -348.58470941 </i>
    <i name="e_wo_entrp">   -348.58470941 </i>
    <i name="e_0_energy">   -348.58470941 </i>
   </energy>
  </scstep>
  <scstep>
   <time name="dav">    3.00    3.00</time>
   <time name="total">    3.52    3.54</time>
   <energy>
    <i name="e_fr_energy">   -346.87181980 </i>
    <i name="e_wo_entrp">   -346.87181980 </i>
    <i name="e_0_energy">   -346.87181980 </i>
   </energy>
  </scstep>
  <scstep>
   <time name="dav">    3.12    3.13</time>
   <time name="total">    3.64    3.65</time>
   <energy>
    <i name="e_fr_energy">   -346.89803100 </i>
    <i name="e_wo_entrp">   -346.89803100 </i>
    <i name="e_0_energy">   -346.89803100 </i>
   </energy>
  </scstep>
  <scstep>
   <time name="dav">    3.17    3.17</time>
   <time name="total">    3.69    3.69</time>
   <energy>
    <i name="e_fr_energy">   -346.90468827 </i>
    <i name="e_wo_entrp">   -346.90468827 </i>
    <i name="e_0_energy">   -346.90468827 </i>
   </energy>
  </scstep>
  <scstep>
   <time name="dav">    3.00    3.00</time>
   <time name="total">    3.52    3.60</time>
   <energy>
    <i name="e_fr_energy">   -346.90675660 </i>
    <i name="e_wo_entrp">   -346.90675660 </i>
    <i name="e_0_energy">   -346.90675660 </i>
   </energy>
  </scstep>
  <scstep>
   <time name="dav">    3.16    3.16</time>
   <time name="total">    3.68    3.69</time>
   <energy>
    <i name="e_fr_energy">   -346.90673038 </i>
    <i name="e_wo_entrp">   -346.90673038 </i>
    <i name="e_0_energy">   -346.90673038 </i>
   </energy>
  </scstep>
  <scstep>
   <time name="dav">    3.04    3.04</time>
   <time name="total">    3.56    3.60</time>
   <energy>
    <i name="e_fr_energy">   -346.90674565 </i>
    <i name="e_wo_entrp">   -346.90674565 </i>
    <i name="e_0_energy">   -346.90674565 </i>
   </energy>
  </scstep>
  <scstep>
   <time name="dav">    3.13    3.14</time>
   <time name="total">    3.65    3.72</time>
   <energy>
    <i name="e_fr_energy">   -346.90674611 </i>
    <i name="e_wo_entrp">   -346.90674611 </i>
    <i name="e_0_energy">   -346.90674611 </i>
   </energy>
  </scstep>
  <scstep>
   <time name="dav">    3.19    3.19</time>
   <time name="total">    3.71    3.72</time>
   <energy>
    <i name="e_fr_energy">   -346.90674671 </i>
    <i name="e_wo_entrp">   -346.90674671 </i>
    <i name="e_0_energy">   -346.90674671 </i>
   </energy>
  </scstep>
  <scstep>
   <time name="dav">    2.80    2.80</time>
   <time name="total">    3.32    3.33</time>
   <energy>
    <i name="e_fr_energy">   -346.90674643 </i>
    <i name="e_wo_entrp">   -346.90674643 </i>
    <i name="e_0_energy">   -346.90674643 </i>
   </energy>
  </scstep>
  <scstep>
   <time name="dav">    2.13    2.13</time>
   <time name="total">    2.64    2.67</time>
   <energy>
    <i name="e_fr_energy">   -346.90674652 </i>
    <i name="e_wo_entrp">   -346.90674652 </i>
    <i name="e_0_energy">   -346.90674652 </i>
   </energy>
  </scstep>
  <scstep>
   <time name="dav">    2.13    2.13</time>
   <time name="total">    2.65    2.65</time>
   <energy>
    <i name="e_fr_energy">   -346.90674650 </i>
    <i name="e_wo_entrp">   -346.90674650 </i>
    <i name="e_0_energy">   -346.90674650 </i>
   </energy>
  </scstep>
  <scstep>
   <time name="dav">    2.12    2.13</time>
   <time name="total">    2.64    3.69</time>
   <energy>
    <i name="e_fr_energy">   -346.90674652 </i>
    <i name="e_wo_entrp">   -346.90674652 </i>
    <i name="e_0_energy">   -346.90674652 </i>
   </energy>
  </scstep>
  <scstep>
   <time name="dav">    2.14    2.14</time>
   <time name="total">    2.40    2.42</time>
   <energy>
    <i name="alphaZ">    105.52440745 </i>
    <i name="ewald">  -7265.46858124 </i>
    <i name="hartreedc">   -485.14559036 </i>
    <i name="XCdc">   -577.61227666 </i>
    <i name="pawpsdc">  27883.46107763 </i>
    <i name="pawaedc"> -26764.17900701 </i>
    <i name="eentropy">      0.00000000 </i>
    <i name="bandstr">    160.36327576 </i>
    <i name="atom">   6596.14994790 </i>
    <i name="e_fr_energy">   -346.90674653 </i>
    <i name="e_wo_entrp">   -346.90674653 </i>
    <i name="e_0_energy">   -346.90674653 </i>
   </energy>
  </scstep>
  <structure>
   <crystal>
    <varray name="basis" >
     <v>      10.93252578       0.00000000       0.00000000 </v>
     <v>       0.00000000      10.93252578       0.00000000 </v>
     <v>       0.00000000       0.00000000      10.93252578 </v>
    </varray>
    <i name="volume">   1306.65679237 </i>
    <varray name="rec_basis" >
     <v>       0.09147017       0.00000000       0.00000000 </v>
     <v>       0.00000000       0.09147017       0.00000000 </v>
     <v>       0.00000000       0.00000000       0.09147017 </v>
    </varray>
   </crystal>
   <varray name="positions" >
    <v>       0.44024411       0.43750000       0.43750000 </v>
    <v>       0.93750000       0.43750000       0.43750000 </v>
    <v>       0.43750000       0.93750000       0.43750000 </v>
    <v>       0.93750000       0.93750000       0.43750000 </v>
    <v>       0.43750000       0.43750000       0.93750000 </v>
    <v>       0.93750000       0.43750000       0.93750000 </v>
    <v>       0.43750000       0.93750000       0.93750000 </v>
    <v>       0.93750000       0.93750000       0.93750000 </v>
    <v>       0.43750000       0.18750000       0.18750000 </v>
    <v>       0.93750000       0.18750000       0.18750000 </v>
    <v>       0.43750000       0.68750000       0.18750000 </v>
    <v>       0.93750000       0.68750000       0.18750000 </v>
    <v>       0.43750000       0.18750000       0.68750000 </v>
    <v>       0.93750000       0.18750000       0.68750000 </v>
    <v>       0.43750000       0.68750000       0.68750000 </v>
    <v>       0.93750000       0.68750000       0.68750000 </v>
    <v>       0.18475589       0.43750000       0.18750000 </v>
    <v>       0.68750000       0.43750000       0.18750000 </v>
    <v>       0.18750000       0.93750000       0.18750000 </v>
    <v>       0.68750000       0.93750000       0.18750000 </v>
    <v>       0.18750000       0.43750000       0.68750000 </v>
    <v>       0.68750000       0.43750000       0.68750000 </v>
    <v>       0.18750000       0.93750000       0.68750000 </v>
    <v>       0.68750000       0.93750000       0.68750000 </v>
    <v>       0.18750000       0.18750000       0.43750000 </v>
    <v>       0.68750000       0.18750000       0.43750000 </v>
    <v>       0.18750000       0.68750000       0.43750000 </v>
    <v>       0.68750000       0.68750000       0.43750000 </v>
    <v>       0.18750000       0.18750000       0.93750000 </v>
    <v>       0.68750000       0.18750000       0.93750000 </v>
    <v>       0.18750000       0.68750000       0.93750000 </v>
    <v>       0.68750000       0.68750000       0.93750000 </v>
    <v>       0.06250000       0.06250000       0.06250000 </v>
    <v>       0.56250000       0.06250000       0.06250000 </v>
    <v>       0.06250000       0.56250000       0.06250000 </v>
    <v>       0.56250000       0.56250000       0.06250000 </v>
    <v>       0.06250000       0.06250000       0.56250000 </v>
    <v>       0.56250000       0.06250000       0.56250000 </v>
    <v>       0.06250000       0.56250000       0.56250000 </v>
    <v>       0.56250000       0.56250000       0.56250000 </v>
    <v>       0.06250000       0.31250000       0.31250000 </v>
    <v>       0.56250000       0.31250000       0.31250000 </v>
    <v>       0.06250000       0.81250000       0.31250000 </v>
    <v>       0.56250000       0.81250000       0.31250000 </v>
    <v>       0.06250000       0.31250000       0.81250000 </v>
    <v>       0.56250000       0.31250000       0.81250000 </v>
    <v>       0.06250000       0.81250000       0.81250000 </v>
    <v>       0.56250000       0.81250000       0.81250000 </v>
    <v>       0.31250000       0.06250000       0.31250000 </v>
    <v>       0.81250000       0.06250000       0.31250000 </v>
    <v>       0.31250000       0.56250000       0.31250000 </v>
    <v>       0.81250000       0.56250000       0.31250000 </v>
    <v>       0.31250000       0.06250000       0.81250000 </v>
    <v>       0.81250000       0.06250000       0.81250000 </v>
    <v>       0.31250000       0.56250000       0.81250000 </v>
    <v>       0.81250000       0.56250000       0.81250000 </v>
    <v>       0.31250000       0.31250000       0.06250000 </v>
    <v>       0.81250000       0.31250000       0.06250000 </v>
    <v>       0.31250000       0.81250000       0.06250000 </v>
    <v>       0.81250000       0.81250000       0.06250000 </v>
    <v>       0.31250000       0.31250000       0.56250000 </v>
    <v>       0.81250000       0.31250000       0.56250000 </v>
    <v>       0.31250000       0.81250000       0.56250000 </v>
    <v>       0.81250000       0.81250000       0.56250000 </v>
   </varray>
  </structure>
  <varray name="forces" >
   <v>      -0.39262163      -0.00274271      -0.00537090 </v>
   <v>      -0.00525295      -0.00275950       0.00568917 </v>
   <v>       0.00029710      -0.00023122       0.00186194 </v>
   <v>      -0.00120151      -0.00022858      -0.00184505 </v>
   <v>      -0.00433727       0.00267351       0.00556582 </v>
   <v>      -0.00597851       0.00276724      -0.00568720 </v>
   <v>      -0.01256811       0.00023238      -0.00186329 </v>
   <v>      -0.00044565       0.00022974       0.00184656 </v>
   <v>      -0.01852412       0.00833055       0.00543829 </v>
   <v>      -0.00582024      -0.00546217       0.00298938 </v>
   <v>      -0.01839996      -0.00284276      -0.00533539 </v>
   <v>      -0.00581108       0.00592183      -0.00300557 </v>
   <v>      -0.01379561      -0.00453589       0.00289404 </v>
   <v>      -0.00102115       0.00161176       0.00046330 </v>
   <v>      -0.01389181      -0.00090509      -0.00300159 </v>
   <v>      -0.00104405      -0.00207494      -0.00045550 </v>
   <v>       0.39262163      -0.00274271       0.00537090 </v>
   <v>       0.00525295      -0.00275950      -0.00568917 </v>
   <v>      -0.00029710      -0.00023122      -0.00186194 </v>
   <v>       0.00120151      -0.00022858       0.00184505 </v>
   <v>       0.00433727       0.00267351      -0.00556582 </v>
   <v>       0.00597851       0.00276724       0.00568720 </v>
   <v>       0.01256811       0.00023238       0.00186329 </v>
   <v>       0.00044565       0.00022974      -0.00184656 </v>
   <v>       0.01852412       0.00833055      -0.00543829 </v>
   <v>       0.00582024      -0.00546217      -0.00298938 </v>
   <v>       0.01839996      -0.00284276       0.00533539 </v>
   <v>       0.00581108       0.00592183       0.00300557 </v>
   <v>       0.01379561      -0.00453589      -0.00289404 </v>
   <v>       0.00102115       0.00161176      -0.00046330 </v>
   <v>       0.01389181      -0.00090509       0.00300159 </v>
   <v>       0.00104405      -0.00207494       0.00045550 </v>
   <v>       0.00094194       0.00167803      -0.00045676 </v>
   <v>       0.00559303       0.00128241       0.00003734 </v>
   <v>      -0.09514819       0.06677056      -0.06552816 </v>
   <v>      -0.00119940       0.00212450       0.00001507 </v>
   <v>      -0.00559303       0.00128241      -0.00003734 </v>
   <v>      -0.00094194       0.00167803       0.00045676 </v>
   <v>       0.00119940       0.00212450      -0.00001507 </v>
   <v>       0.09514819       0.06677056       0.06552816 </v>
   <v>      -0.09607006      -0.06701908       0.06521716 </v>
   <v>       0.09607006      -0.06701908      -0.06521716 </v>
   <v>       0.00209268      -0.00152486       0.00056492 </v>
   <v>      -0.00209268      -0.00152486      -0.00056492 </v>
   <v>       0.00209574      -0.00186932       0.00032425 </v>
   <v>      -0.00209574      -0.00186932      -0.00032425 </v>
   <v>      -0.00674189      -0.00143625      -0.00006704 </v>
   <v>       0.00674189      -0.00143625       0.00006704 </v>
   <v>       0.00000000      -0.00178064       0.00000000 </v>
   <v>       0.00000000      -0.00127639       0.00000000 </v>
   <v>       0.00000000      -0.12191017       0.00000000 </v>
   <v>       0.00000000      -0.00180442       0.00000000 </v>
   <v>       0.00000000      -0.00135165       0.00000000 </v>
   <v>       0.00000000      -0.00149057       0.00000000 </v>
   <v>       0.00000000      -0.00249127       0.00000000 </v>
   <v>       0.00000000      -0.00140577       0.00000000 </v>
   <v>      -0.09450555       0.06221258       0.06006886 </v>
   <v>       0.00093769       0.00160627       0.00026773 </v>
   <v>       0.00756517       0.00156614       0.00056422 </v>
   <v>      -0.00119420       0.00138030      -0.00003680 </v>
   <v>       0.09450555       0.06221258      -0.06006886 </v>
   <v>      -0.00093769       0.00160627      -0.00026773 </v>
   <v>      -0.00756517       0.00156614      -0.00056422 </v>
   <v>       0.00119420       0.00138030       0.00003680 </v>
  </varray>
  <varray name="stress" >
   <v>      -0.01778475       0.00000000       0.00018722 </v>
   <v>       0.00000000       0.02137017       0.00000000 </v>
   <v>       0.00018725       0.00000000       0.02148846 </v>
  </varray>
  <energy>
   <i name="e_fr_energy">   -346.90674653 </i>
   <i name="e_wo_entrp">   -346.90674653 </i>
   <i name="e_0_energy">      0.00000000 </i>
  </energy>
  <time name="totalsc">   70.03   71.47</time>
  <eigenvalues>
   <array>
    <dimension dim="1">band</dimension>
    <dimension dim="2">kpoint</dimension>
    <dimension dim="3">spin</dimension>
    <field>eigene</field>
    <field>occ</field>
    <set>
     <set comment="spin 1">
      <set comment="kpoint 1">
       <r>   -5.9932    1.0000 </r>
       <r>   -5.4672    1.0000 </r>
       <r>   -5.4648    1.0000 </r>
       <r>   -5.4624    1.0000 </r>
       <r>   -4.9679    1.0000 </r>
       <r>   -4.9656    1.0000 </r>
       <r>   -4.9632    1.0000 </r>
       <r>   -4.5323    1.0000 </r>
       <r>   -4.4348    1.0000 </r>
       <r>   -4.4324    1.0000 </r>
       <r>   -4.4300    1.0000 </r>
       <r>   -4.0243    1.0000 </r>
       <r>   -4.0185    1.0000 </r>
       <r>   -4.0180    1.0000 </r>
       <r>   -4.0158    1.0000 </r>
       <r>   -4.0143    1.0000 </r>
       <r>   -4.0080    1.0000 </r>
       <r>   -3.8293    1.0000 </r>
       <r>   -3.8244    1.0000 </r>
       <r>   -3.8192    1.0000 </r>
       <r>   -3.3309    1.0000 </r>
       <r>   -3.3283    1.0000 </r>
       <r>   -3.3257    1.0000 </r>
       <r>   -2.9640    1.0000 </r>
       <r>   -2.9590    1.0000 </r>
       <r>   -2.9545    1.0000 </r>
       <r>   -2.7979    1.0000 </r>
       <r>   -2.7936    1.0000 </r>
       <r>   -2.7925    1.0000 </r>
       <r>   -2.7902    1.0000 </r>
       <r>   -2.7886    1.0000 </r>
       <r>   -2.7821    1.0000 </r>
       <r>   -1.2556    1.0000 </r>
       <r>   -1.2515    1.0000 </r>
       <r>   -1.2504    1.0000 </r>
       <r>   -1.2481    1.0000 </r>
       <r>   -1.2457    1.0000 </r>
       <r>   -1.2421    1.0000 </r>
       <r>   -1.1555    1.0000 </r>
       <r>   -1.1512    1.0000 </r>
       <r>   -1.1465    1.0000 </r>
       <r>   -1.0360    1.0000 </r>
       <r>   -1.0326    1.0000 </r>
       <r>   -1.0292    1.0000 </r>
       <r>   -0.9518    1.0000 </r>
       <r>   -0.9468    1.0000 </r>
       <r>   -0.9415    1.0000 </r>
       <r>   -0.2446    1.0000 </r>
       <r>   -0.1672    1.0000 </r>
       <r>   -0.1636    1.0000 </r>
       <r>   -0.1608    1.0000 </r>
       <r>   -0.1597    1.0000 </r>
       <r>   -0.1560    1.0000 </r>
       <r>   -0.1533    1.0000 </r>
       <r>    0.7094    1.0000 </r>
       <r>    0.7143    1.0000 </r>
       <r>    0.7190    1.0000 </r>
       <r>    1.0456    1.0000 </r>
       <r>    1.0471    1.0000 </r>
       <r>    1.0485    1.0000 </r>
       <r>    1.6537    1.0000 </r>
       <r>    1.6542    1.0000 </r>
       <r>    1.6565    1.0000 </r>
       <r>    1.6579    1.0000 </r>
       <r>    1.6589    1.0000 </r>
       <r>    1.6605    1.0000 </r>
       <r>    1.7145    1.0000 </r>
       <r>    1.7159    1.0000 </r>
       <r>    1.7177    1.0000 </r>
       <r>    2.2655    1.0000 </r>
       <r>    2.2677    1.0000 </r>
       <r>    2.2699    1.0000 </r>
       <r>    2.3661    1.0000 </r>
       <r>    2.3681    1.0000 </r>
       <r>    2.3698    1.0000 </r>
       <r>    2.3713    1.0000 </r>
       <r>    2.3744    1.0000 </r>
       <r>    2.3757    1.0000 </r>
       <r>    2.4227    1.0000 </r>
       <r>    2.4248    1.0000 </r>
       <r>    2.4272    1.0000 </r>
       <r>    2.7299    1.0000 </r>
       <r>    2.7326    1.0000 </r>
       <r>    2.7344    1.0000 </r>
       <r>    2.7358    1.0000 </r>
       <r>    2.7378    1.0000 </r>
       <r>    2.7390    1.0000 </r>
       <r>    2.9970    1.0000 </r>
       <r>    2.9991    1.0000 </r>
       <r>    3.0011    1.0000 </r>
       <r>    3.0126    1.0000 </r>
       <r>    3.0136    1.0000 </r>
       <r>    3.0149    1.0000 </r>
       <r>    3.3587    1.0000 </r>
       <r>    3.3620    1.0000 </r>
       <r>    3.3644    1.0000 </r>
       <r>    3.3797    1.0000 </r>
       <r>    3.3847    1.0000 </r>
       <r>    3.3894    1.0000 </r>
       <r>    3.4647    1.0000 </r>
       <r>    3.4666    1.0000 </r>
       <r>    3.4687    1.0000 </r>
       <r>    3.7329    1.0000 </r>
       <r>    3.7390    1.0000 </r>
       <r>    3.7407    1.0000 </r>
       <r>    3.7414    1.0000 </r>
       <r>    3.7436    1.0000 </r>
       <r>    3.7498    1.0000 </r>
       <r>    3.7785    1.0000 </r>
       <r>    3.7805    1.0000 </r>
       <r>    3.7833    1.0000 </r>
       <r>    4.0405    1.0000 </r>
       <r>    4.0956    1.0000 </r>
       <r>    4.0979    1.0000 </r>
       <r>    4.1004    1.0000 </r>
       <r>    4.3389    1.0000 </r>
       <r>    4.3410    1.0000 </r>
       <r>    4.3433    1.0000 </r>
       <r>    4.4016    1.0000 </r>
       <r>    4.4056    1.0000 </r>
       <r>    4.4103    1.0000 </r>
       <r>    4.5629    1.0000 </r>
       <r>    4.5630    1.0000 </r>
       <r>    4.8672    1.0000 </r>
       <r>    4.8699    1.0000 </r>
       <r>    4.8730    1.0000 </r>
       <r>    5.3496    1.0000 </r>
       <r>    5.3498    1.0000 </r>
       <r>    6.5596    0.0000 </r>
       <r>    6.5634    0.0000 </r>
       <r>    6.5671    0.0000 </r>
       <r>    7.0007    0.0000 </r>
       <r>    7.0045    0.0000 </r>
       <r>    7.0081    0.0000 </r>
       <r>    7.2337    0.0000 </r>
       <r>    7.4876    0.0000 </r>
       <r>    7.4908    0.0000 </r>
       <r>    7.4936    0.0000 </r>
       <r>    7.6151    0.0000 </r>
       <r>    7.6194    0.0000 </r>
       <r>    7.6240    0.0000 </r>
       <r>    7.7775    0.0000 </r>
       <r>    7.7800    0.0000 </r>
       <r>    7.7824    0.0000 </r>
       <r>    7.7979    0.0000 </r>
       <r>    7.8012    0.0000 </r>
       <r>    7.8044    0.0000 </r>
       <r>    8.0243    0.0000 </r>
       <r>    8.0270    0.0000 </r>
       <r>    8.0295    0.0000 </r>
       <r>    8.0307    0.0000 </r>
       <r>    8.0347    0.0000 </r>
       <r>    8.0365    0.0000 </r>
       <r>    8.0817    0.0000 </r>
       <r>    8.2929    0.0000 </r>
       <r>    8.2950    0.0000 </r>
       <r>    8.2970    0.0000 </r>
       <r>    8.4941    0.0000 </r>
       <r>    8.4990    0.0000 </r>
       <r>    8.5019    0.0000 </r>
       <r>    8.5062    0.0000 </r>
       <r>    8.5084    0.0000 </r>
       <r>    8.5196    0.0000 </r>
       <r>    8.5480    0.0000 </r>
      </set>
      <set comment="kpoint 2">
       <r>   -5.9932    1.0000 </r>
       <r>   -5.4687    1.0000 </r>
       <r>   -5.4647    1.0000 </r>
       <r>   -5.4610    1.0000 </r>
       <r>   -4.9693    1.0000 </r>
       <r>   -4.9654    1.0000 </r>
       <r>   -4.9619    1.0000 </r>
       <r>   -4.5323    1.0000 </r>
       <r>   -4.4364    1.0000 </r>
       <r>   -4.4324    1.0000 </r>
       <r>   -4.4287    1.0000 </r>
       <r>   -4.0242    1.0000 </r>
       <r>   -4.0190    1.0000 </r>
       <r>   -4.0181    1.0000 </r>
       <r>   -4.0162    1.0000 </r>
       <r>   -4.0136    1.0000 </r>
       <r>   -4.0076    1.0000 </r>
       <r>   -3.8293    1.0000 </r>
       <r>   -3.8244    1.0000 </r>
       <r>   -3.8192    1.0000 </r>
       <r>   -3.3329    1.0000 </r>
       <r>   -3.3283    1.0000 </r>
       <r>   -3.3239    1.0000 </r>
       <r>   -2.9641    1.0000 </r>
       <r>   -2.9590    1.0000 </r>
       <r>   -2.9545    1.0000 </r>
       <r>   -2.7981    1.0000 </r>
       <r>   -2.7937    1.0000 </r>
       <r>   -2.7923    1.0000 </r>
       <r>   -2.7906    1.0000 </r>
       <r>   -2.7883    1.0000 </r>
       <r>   -2.7820    1.0000 </r>
       <r>   -1.2552    1.0000 </r>
       <r>   -1.2518    1.0000 </r>
       <r>   -1.2504    1.0000 </r>
       <r>   -1.2485    1.0000 </r>
       <r>   -1.2455    1.0000 </r>
       <r>   -1.2418    1.0000 </r>
       <r>   -1.1554    1.0000 </r>
       <r>   -1.1512    1.0000 </r>
       <r>   -1.1465    1.0000 </r>
       <r>   -1.0360    1.0000 </r>
       <r>   -1.0328    1.0000 </r>
       <r>   -1.0292    1.0000 </r>
       <r>   -0.9536    1.0000 </r>
       <r>   -0.9468    1.0000 </r>
       <r>   -0.9396    1.0000 </r>
       <r>   -0.2446    1.0000 </r>
       <r>   -0.1670    1.0000 </r>
       <r>   -0.1639    1.0000 </r>
       <r>   -0.1620    1.0000 </r>
       <r>   -0.1593    1.0000 </r>
       <r>   -0.1558    1.0000 </r>
       <r>   -0.1527    1.0000 </r>
       <r>    0.7090    1.0000 </r>
       <r>    0.7143    1.0000 </r>
       <r>    0.7195    1.0000 </r>
       <r>    1.0449    1.0000 </r>
       <r>    1.0470    1.0000 </r>
       <r>    1.0493    1.0000 </r>
       <r>    1.6527    1.0000 </r>
       <r>    1.6546    1.0000 </r>
       <r>    1.6561    1.0000 </r>
       <r>    1.6575    1.0000 </r>
       <r>    1.6599    1.0000 </r>
       <r>    1.6604    1.0000 </r>
       <r>    1.7136    1.0000 </r>
       <r>    1.7161    1.0000 </r>
       <r>    1.7191    1.0000 </r>
       <r>    2.2655    1.0000 </r>
       <r>    2.2677    1.0000 </r>
       <r>    2.2699    1.0000 </r>
       <r>    2.3656    1.0000 </r>
       <r>    2.3674    1.0000 </r>
       <r>    2.3696    1.0000 </r>
       <r>    2.3709    1.0000 </r>
       <r>    2.3743    1.0000 </r>
       <r>    2.3762    1.0000 </r>
       <r>    2.4223    1.0000 </r>
       <r>    2.4255    1.0000 </r>
       <r>    2.4282    1.0000 </r>
       <r>    2.7305    1.0000 </r>
       <r>    2.7318    1.0000 </r>
       <r>    2.7337    1.0000 </r>
       <r>    2.7361    1.0000 </r>
       <r>    2.7373    1.0000 </r>
       <r>    2.7399    1.0000 </r>
       <r>    2.9973    1.0000 </r>
       <r>    2.9991    1.0000 </r>
       <r>    3.0007    1.0000 </r>
       <r>    3.0115    1.0000 </r>
       <r>    3.0144    1.0000 </r>
       <r>    3.0154    1.0000 </r>
       <r>    3.3584    1.0000 </r>
       <r>    3.3620    1.0000 </r>
       <r>    3.3648    1.0000 </r>
       <r>    3.3799    1.0000 </r>
       <r>    3.3847    1.0000 </r>
       <r>    3.3893    1.0000 </r>
       <r>    3.4640    1.0000 </r>
       <r>    3.4667    1.0000 </r>
       <r>    3.4692    1.0000 </r>
       <r>    3.7334    1.0000 </r>
       <r>    3.7383    1.0000 </r>
       <r>    3.7408    1.0000 </r>
       <r>    3.7411    1.0000 </r>
       <r>    3.7443    1.0000 </r>
       <r>    3.7495    1.0000 </r>
       <r>    3.7777    1.0000 </r>
       <r>    3.7810    1.0000 </r>
       <r>    3.7838    1.0000 </r>
       <r>    4.0405    1.0000 </r>
       <r>    4.0955    1.0000 </r>
       <r>    4.0980    1.0000 </r>
       <r>    4.1003    1.0000 </r>
       <r>    4.3379    1.0000 </r>
       <r>    4.3410    1.0000 </r>
       <r>    4.3442    1.0000 </r>
       <r>    4.4005    1.0000 </r>
       <r>    4.4056    1.0000 </r>
       <r>    4.4116    1.0000 </r>
       <r>    4.5629    1.0000 </r>
       <r>    4.5630    1.0000 </r>
       <r>    4.8659    1.0000 </r>
       <r>    4.8701    1.0000 </r>
       <r>    4.8743    1.0000 </r>
       <r>    5.3496    1.0000 </r>
       <r>    5.3498    1.0000 </r>
       <r>    6.5596    0.0000 </r>
       <r>    6.5634    0.0000 </r>
       <r>    6.5671    0.0000 </r>
       <r>    6.9999    0.0000 </r>
       <r>    7.0045    0.0000 </r>
       <r>    7.0090    0.0000 </r>
       <r>    7.2337    0.0000 </r>
       <r>    7.4871    0.0000 </r>
       <r>    7.4908    0.0000 </r>
       <r>    7.4942    0.0000 </r>
       <r>    7.6151    0.0000 </r>
       <r>    7.6195    0.0000 </r>
       <r>    7.6240    0.0000 </r>
       <r>    7.7761    0.0000 </r>
       <r>    7.7798    0.0000 </r>
       <r>    7.7830    0.0000 </r>
       <r>    7.7981    0.0000 </r>
       <r>    7.8014    0.0000 </r>
       <r>    7.8047    0.0000 </r>
       <r>    8.0252    0.0000 </r>
       <r>    8.0267    0.0000 </r>
       <r>    8.0286    0.0000 </r>
       <r>    8.0313    0.0000 </r>
       <r>    8.0345    0.0000 </r>
       <r>    8.0366    0.0000 </r>
       <r>    8.0816    0.0000 </r>
       <r>    8.2921    0.0000 </r>
       <r>    8.2950    0.0000 </r>
       <r>    8.2978    0.0000 </r>
       <r>    8.4952    0.0000 </r>
       <r>    8.4980    0.0000 </r>
       <r>    8.5011    0.0000 </r>
       <r>    8.5043    0.0000 </r>
       <r>    8.5099    0.0000 </r>
       <r>    8.5221    0.0000 </r>
       <r>    8.5402    0.0000 </r>
      </set>
     </set>
    </set>
   </array>
  </eigenvalues>
  <separator name="orbital magnetization" >
   <v name="MAGDIPOLOUT">      0.00000000      0.00000000      0.00000000</v>
  </separator>
  <dos>
   <i name="efermi">      5.59946179 </i>
   <total>
    <array>
     <dimension dim="1">gridpoints</dimension>
     <dimension dim="2">spin</dimension>
     <field>energy</field>
     <field>total</field>
     <field>integrated</field>
     <set>
      <set comment="spin 1">
       <r>    -6.7202     0.0000     0.0000 </r>
       <r>    -6.6669     0.0000     0.0000 </r>
       <r>    -6.6136     0.0000     0.0000 </r>
       <r>    -6.5603     0.0000     0.0000 </r>
       <r>    -6.5070     0.0000     0.0000 </r>
       <r>    -6.4536     0.0000     0.0000 </r>
       <r>    -6.4003     0.0000     0.0000 </r>
       <r>    -6.3470     0.0000     0.0000 </r>
       <r>    -6.2937     0.0000     0.0000 </r>
       <r>    -6.2404     0.0000     0.0000 </r>
       <r>    -6.1871     0.0000     0.0000 </r>
       <r>    -6.1337     0.0013     0.0001 </r>
       <r>    -6.0804     0.2537     0.0136 </r>
       <r>    -6.0271     6.0691     0.3372 </r>
       <r>    -5.9738    20.2435     1.4165 </r>
       <r>    -5.9205    10.1979     1.9603 </r>
       <r>    -5.8672     0.7386     1.9996 </r>
       <r>    -5.8138     0.0068     2.0000 </r>
       <r>    -5.7605     0.0000     2.0000 </r>
       <r>    -5.7072     0.0000     2.0000 </r>
       <r>    -5.6539     0.0000     2.0000 </r>
       <r>    -5.6006     0.0072     2.0004 </r>
       <r>    -5.5473     1.1187     2.0600 </r>
       <r>    -5.4939    21.9972     3.2329 </r>
       <r>    -5.4406    61.5344     6.5137 </r>
       <r>    -5.3873    26.2529     7.9135 </r>
       <r>    -5.3340     1.6101     7.9993 </r>
       <r>    -5.2807     0.0126     8.0000 </r>
       <r>    -5.2273     0.0000     8.0000 </r>
       <r>    -5.1740     0.0000     8.0000 </r>
       <r>    -5.1207     0.0007     8.0000 </r>
       <r>    -5.0674     0.2280     8.0122 </r>
       <r>    -5.0141     9.3942     8.5131 </r>
       <r>    -4.9608    52.6961    11.3227 </r>
       <r>    -4.9074    44.5238    13.6966 </r>
       <r>    -4.8541     5.5965    13.9950 </r>
       <r>    -4.8008     0.0937    14.0000 </r>
       <r>    -4.7475     0.0002    14.0000 </r>
       <r>    -4.6942     0.0001    14.0000 </r>
       <r>    -4.6409     0.0400    14.0021 </r>
       <r>    -4.5875     2.1788    14.1183 </r>
       <r>    -4.5342    15.9592    14.9692 </r>
       <r>    -4.4809    26.2568    16.3692 </r>
       <r>    -4.4276    55.4226    19.3242 </r>
       <r>    -4.3743    44.5155    21.6976 </r>
       <r>    -4.3209     5.5777    21.9950 </r>
       <r>    -4.2676     0.0933    22.0000 </r>
       <r>    -4.2143     0.0002    22.0000 </r>
       <r>    -4.1610     0.0058    22.0003 </r>
       <r>    -4.1077     1.1874    22.0636 </r>
       <r>    -4.0544    31.2619    23.7304 </r>
       <r>    -4.0010   117.6659    30.0041 </r>
       <r>    -3.9477    68.8653    33.6758 </r>
       <r>    -3.8944     8.7580    34.1428 </r>
       <r>    -3.8411    33.1708    35.9114 </r>
       <r>    -3.7878    59.5362    39.0857 </r>
       <r>    -3.7345    16.4962    39.9652 </r>
       <r>    -3.6811     0.6490    39.9998 </r>
       <r>    -3.6278     0.0032    40.0000 </r>
       <r>    -3.5745     0.0000    40.0000 </r>
       <r>    -3.5212     0.0000    40.0000 </r>
       <r>    -3.4679     0.0047    40.0003 </r>
       <r>    -3.4145     0.8457    40.0453 </r>
       <r>    -3.3612    19.0652    41.0619 </r>
       <r>    -3.3079    60.8379    44.3056 </r>
       <r>    -3.2546    29.6601    45.8870 </r>
       <r>    -3.2013     2.1003    45.9990 </r>
       <r>    -3.1480     0.0192    46.0000 </r>
       <r>    -3.0946     0.0079    46.0004 </r>
       <r>    -3.0413     1.1704    46.0628 </r>
       <r>    -2.9880    22.3329    47.2536 </r>
       <r>    -2.9347    61.4011    50.5273 </r>
       <r>    -2.8814    27.2612    51.9808 </r>
       <r>    -2.8281    33.7477    53.7802 </r>
       <r>    -2.7747   118.2700    60.0860 </r>
       <r>    -2.7214    67.5633    63.6884 </r>
       <r>    -2.6681     5.7787    63.9965 </r>
       <r>    -2.6148     0.0663    64.0000 </r>
       <r>    -2.5615     0.0001    64.0000 </r>
       <r>    -2.5081     0.0000    64.0000 </r>
       <r>    -2.4548     0.0000    64.0000 </r>
       <r>    -2.4015     0.0000    64.0000 </r>
       <r>    -2.3482     0.0000    64.0000 </r>
       <r>    -2.2949     0.0000    64.0000 </r>
       <r>    -2.2416     0.0000    64.0000 </r>
       <r>    -2.1882     0.0000    64.0000 </r>
       <r>    -2.1349     0.0000    64.0000 </r>
       <r>    -2.0816     0.0000    64.0000 </r>
       <r>    -2.0283     0.0000    64.0000 </r>
       <r>    -1.9750     0.0000    64.0000 </r>
       <r>    -1.9217     0.0000    64.0000 </r>
       <r>    -1.8683     0.0000    64.0000 </r>
       <r>    -1.8150     0.0000    64.0000 </r>
       <r>    -1.7617     0.0000    64.0000 </r>
       <r>    -1.7084     0.0000    64.0000 </r>
       <r>    -1.6551     0.0000    64.0000 </r>
       <r>    -1.6017     0.0000    64.0000 </r>
       <r>    -1.5484     0.0000    64.0000 </r>
       <r>    -1.4951     0.0000    64.0000 </r>
       <r>    -1.4418     0.0000    64.0000 </r>
       <r>    -1.3885     0.0100    64.0005 </r>
       <r>    -1.3352     1.7249    64.0925 </r>
       <r>    -1.2818    38.2087    66.1297 </r>
       <r>    -1.2285   122.9032    72.6826 </r>
       <r>    -1.1752    85.8550    77.2602 </r>
       <r>    -1.1219    66.3670    80.7987 </r>
       <r>    -1.0686    38.9257    82.8741 </r>
       <r>    -1.0153    64.1123    86.2925 </r>
       <r>    -0.9619    67.0986    89.8700 </r>
       <r>    -0.9086    61.3232    93.1396 </r>
       <r>    -0.8553    15.5474    93.9685 </r>
       <r>    -0.8020     0.5870    93.9998 </r>
       <r>    -0.7487     0.0028    94.0000 </r>
       <r>    -0.6953     0.0000    94.0000 </r>
       <r>    -0.6420     0.0000    94.0000 </r>
       <r>    -0.5887     0.0000    94.0000 </r>
       <r>    -0.5354     0.0000    94.0000 </r>
       <r>    -0.4821     0.0000    94.0000 </r>
       <r>    -0.4288     0.0000    94.0000 </r>
       <r>    -0.3754     0.0040    94.0002 </r>
       <r>    -0.3221     0.5289    94.0284 </r>
       <r>    -0.2688     8.9921    94.5079 </r>
       <r>    -0.2155    33.8617    96.3133 </r>
       <r>    -0.1622   101.1122   101.7043 </r>
       <r>    -0.1089   101.1186   107.0957 </r>
       <r>    -0.0555    16.5810   107.9798 </r>
       <r>    -0.0022     0.3779   107.9999 </r>
       <r>     0.0511     0.0011   108.0000 </r>
       <r>     0.1044     0.0000   108.0000 </r>
       <r>     0.1577     0.0000   108.0000 </r>
       <r>     0.2111     0.0000   108.0000 </r>
       <r>     0.2644     0.0000   108.0000 </r>
       <r>     0.3177     0.0000   108.0000 </r>
       <r>     0.3710     0.0000   108.0000 </r>
       <r>     0.4243     0.0000   108.0000 </r>
       <r>     0.4776     0.0000   108.0000 </r>
       <r>     0.5310     0.0000   108.0000 </r>
       <r>     0.5843     0.0146   108.0008 </r>
       <r>     0.6376     1.7422   108.0937 </r>
       <r>     0.6909    27.0368   109.5352 </r>
       <r>     0.7442    61.2410   112.8004 </r>
       <r>     0.7975    21.4137   113.9422 </r>
       <r>     0.8509     1.0780   113.9996 </r>
       <r>     0.9042     0.0100   114.0002 </r>
       <r>     0.9575     0.6361   114.0341 </r>
       <r>     1.0108    16.5471   114.9163 </r>
       <r>     1.0641    59.9026   118.1102 </r>
       <r>     1.1175    32.8134   119.8597 </r>
       <r>     1.1708     2.6044   119.9986 </r>
       <r>     1.2241     0.0266   120.0000 </r>
       <r>     1.2774     0.0000   120.0000 </r>
       <r>     1.3307     0.0000   120.0000 </r>
       <r>     1.3840     0.0000   120.0000 </r>
       <r>     1.4374     0.0000   120.0000 </r>
       <r>     1.4907     0.0003   120.0000 </r>
       <r>     1.5440     0.1626   120.0087 </r>
       <r>     1.5973    10.3171   120.5588 </r>
       <r>     1.6506    89.8415   125.3489 </r>
       <r>     1.7039   145.0794   133.0842 </r>
       <r>     1.7573    77.8684   137.2359 </r>
       <r>     1.8106    13.8988   137.9770 </r>
       <r>     1.8639     0.4299   137.9999 </r>
       <r>     1.9172     0.0017   138.0000 </r>
       <r>     1.9705     0.0000   138.0000 </r>
       <r>     2.0238     0.0000   138.0000 </r>
       <r>     2.0772     0.0000   138.0000 </r>
       <r>     2.1305     0.0060   138.0003 </r>
       <r>     2.1838     0.9951   138.0534 </r>
       <r>     2.2371    20.8307   139.1640 </r>
       <r>     2.2904    64.0786   142.5805 </r>
       <r>     2.3438    76.3150   146.6495 </r>
       <r>     2.3971   147.7451   154.5269 </r>
       <r>     2.4504   110.5786   160.4227 </r>
       <r>     2.5037    28.0714   161.9194 </r>
       <r>     2.5570     1.5013   161.9994 </r>
       <r>     2.6103     0.0615   162.0027 </r>
       <r>     2.6637     4.9812   162.2683 </r>
       <r>     2.7170    63.9906   165.6801 </r>
       <r>     2.7703   120.1591   172.0867 </r>
       <r>     2.8236    34.4830   173.9252 </r>
       <r>     2.8769     1.4326   174.0016 </r>
       <r>     2.9302     3.9194   174.2106 </r>
       <r>     2.9836    55.4533   177.1672 </r>
       <r>     3.0369   120.7711   183.6065 </r>
       <r>     3.0902    42.6036   185.8780 </r>
       <r>     3.1435     2.2722   185.9991 </r>
       <r>     3.1968     0.0164   186.0000 </r>
       <r>     3.2502     0.1014   186.0054 </r>
       <r>     3.3035     6.8187   186.3690 </r>
       <r>     3.3568    67.6902   189.9781 </r>
       <r>     3.4101   120.3500   196.3948 </r>
       <r>     3.4634    80.5786   200.6911 </r>
       <r>     3.5167    53.2157   203.5284 </r>
       <r>     3.5701     8.6486   203.9895 </r>
       <r>     3.6234     0.3045   204.0058 </r>
       <r>     3.6767     8.0369   204.4343 </r>
       <r>     3.7300    85.1845   208.9761 </r>
       <r>     3.7833   164.3635   217.7396 </r>
       <r>     3.8366    72.5858   221.6097 </r>
       <r>     3.8900     7.2011   221.9936 </r>
       <r>     3.9433     0.2312   222.0060 </r>
       <r>     3.9966     4.1396   222.2267 </r>
       <r>     4.0499    28.2719   223.7341 </r>
       <r>     4.1032    66.4935   227.2794 </r>
       <r>     4.1566    45.4961   229.7051 </r>
       <r>     4.2099     5.4545   229.9959 </r>
       <r>     4.2632     1.6500   230.0839 </r>
       <r>     4.3165    26.5621   231.5001 </r>
       <r>     4.3698    78.4465   235.6827 </r>
       <r>     4.4231    82.0336   240.0565 </r>
       <r>     4.4765    34.3230   241.8866 </r>
       <r>     4.5298    15.1625   242.6950 </r>
       <r>     4.5831    40.6566   244.8627 </r>
       <r>     4.6364    19.9166   245.9246 </r>
       <r>     4.6897     1.4017   245.9993 </r>
       <r>     4.7430     0.0318   246.0010 </r>
       <r>     4.7964     2.1042   246.1132 </r>
       <r>     4.8497    29.6929   247.6964 </r>
       <r>     4.9030    60.8354   250.9400 </r>
       <r>     4.9563    19.0342   251.9548 </r>
       <r>     5.0096     0.8425   251.9997 </r>
       <r>     5.0630     0.0047   252.0000 </r>
       <r>     5.1163     0.0000   252.0000 </r>
       <r>     5.1696     0.0000   252.0000 </r>
       <r>     5.2229     0.0125   252.0007 </r>
       <r>     5.2762     1.3996   252.0753 </r>
       <r>     5.3295    19.9033   253.1365 </r>
       <r>     5.3829    40.6322   255.3029 </r>
       <r>     5.4362    12.5317   255.9711 </r>
       <r>     5.4895     0.5398   255.9998 </r>
       <r>     5.5428     0.0029   256.0000 </r>
       <r>     5.5961     0.0000   256.0000 </r>
       <r>     5.6494     0.0000   256.0000 </r>
       <r>     5.7028     0.0000   256.0000 </r>
       <r>     5.7561     0.0000   256.0000 </r>
       <r>     5.8094     0.0000   256.0000 </r>
       <r>     5.8627     0.0000   256.0000 </r>
       <r>     5.9160     0.0000   256.0000 </r>
       <r>     5.9694     0.0000   256.0000 </r>
       <r>     6.0227     0.0000   256.0000 </r>
       <r>     6.0760     0.0000   256.0000 </r>
       <r>     6.1293     0.0000   256.0000 </r>
       <r>     6.1826     0.0000   256.0000 </r>
       <r>     6.2359     0.0000   256.0000 </r>
       <r>     6.2893     0.0000   256.0000 </r>
       <r>     6.3426     0.0000   256.0000 </r>
       <r>     6.3959     0.0001   256.0000 </r>
       <r>     6.4492     0.0728   256.0039 </r>
       <r>     6.5025     4.7923   256.2594 </r>
       <r>     6.5558    41.9552   258.4964 </r>
       <r>     6.6092    54.6325   261.4092 </r>
       <r>     6.6625    10.7863   261.9843 </r>
       <r>     6.7158     0.2930   261.9999 </r>
       <r>     6.7691     0.0010   262.0000 </r>
       <r>     6.8224     0.0000   262.0000 </r>
       <r>     6.8758     0.0164   262.0009 </r>
       <r>     6.9291     1.8877   262.1015 </r>
       <r>     6.9824    28.1832   263.6042 </r>
       <r>     7.0357    61.1388   266.8640 </r>
       <r>     7.0890    20.3378   267.9483 </r>
       <r>     7.1423     1.1465   268.0095 </r>
       <r>     7.1957     5.1093   268.2819 </r>
       <r>     7.2490    19.7370   269.3342 </r>
       <r>     7.3023    11.5050   269.9476 </r>
       <r>     7.3556     0.9797   269.9999 </r>
       <r>     7.4089     1.1928   270.0635 </r>
       <r>     7.4622    22.5994   271.2684 </r>
       <r>     7.5156    61.7817   274.5624 </r>
       <r>     7.5689    34.0926   276.3802 </r>
       <r>     7.6222    52.4950   279.1791 </r>
       <r>     7.6755    46.6328   281.6654 </r>
       <r>     7.7288    16.9336   282.5683 </r>
       <r>     7.7822    81.7643   286.9278 </r>
       <r>     7.8355   107.2564   292.6464 </r>
       <r>     7.8888    24.5115   293.9533 </r>
       <r>     7.9421     2.3422   294.0782 </r>
       <r>     7.9954    35.3915   295.9652 </r>
       <r>     8.0487   126.4532   302.7074 </r>
       <r>     8.1021    83.7128   307.1707 </r>
       <r>     8.1554    14.8128   307.9605 </r>
       <r>     8.2087     1.5683   308.0442 </r>
       <r>     8.2620    18.9689   309.0555 </r>
       <r>     8.3153    60.9118   312.3032 </r>
       <r>     8.3686    29.7319   313.8884 </r>
       <r>     8.4220     4.5639   314.1318 </r>
       <r>     8.4753    45.1696   316.5401 </r>
       <r>     8.5286   131.8688   323.5710 </r>
       <r>     8.5819    73.7586   327.5037 </r>
       <r>     8.6352     9.0739   327.9875 </r>
       <r>     8.6886     0.2343   327.9999 </r>
       <r>     8.7419     0.0010   328.0000 </r>
       <r>     8.7952     0.0000   328.0000 </r>
       <r>     8.8485     0.0000   328.0000 </r>
       <r>     8.9018     0.0000   328.0000 </r>
       <r>     8.9551     0.0000   328.0000 </r>
       <r>     9.0085     0.0000   328.0000 </r>
       <r>     9.0618     0.0000   328.0000 </r>
       <r>     9.1151     0.0000   328.0000 </r>
       <r>     9.1684     0.0000   328.0000 </r>
       <r>     9.2217     0.0000   328.0000 </r>
       <r>     9.2750     0.0000   328.0000 </r>
      </set>
     </set>
    </array>
   </total>
  </dos>
 </calculation>
 <structure name="finalpos" >
  <crystal>
   <varray name="basis" >
    <v>      10.93252578       0.00000000       0.00000000 </v>
    <v>       0.00000000      10.93252578       0.00000000 </v>
    <v>       0.00000000       0.00000000      10.93252578 </v>
   </varray>
   <i name="volume">   1306.65679237 </i>
   <varray name="rec_basis" >
    <v>       0.09147017       0.00000000       0.00000000 </v>
    <v>       0.00000000       0.09147017       0.00000000 </v>
    <v>       0.00000000       0.00000000       0.09147017 </v>
   </varray>
  </crystal>
  <varray name="positions" >
   <v>       0.44024411       0.43750000       0.43750000 </v>
   <v>       0.93750000       0.43750000       0.43750000 </v>
   <v>       0.43750000       0.93750000       0.43750000 </v>
   <v>       0.93750000       0.93750000       0.43750000 </v>
   <v>       0.43750000       0.43750000       0.93750000 </v>
   <v>       0.93750000       0.43750000       0.93750000 </v>
   <v>       0.43750000       0.93750000       0.93750000 </v>
   <v>       0.93750000       0.93750000       0.93750000 </v>
   <v>       0.43750000       0.18750000       0.18750000 </v>
   <v>       0.93750000       0.18750000       0.18750000 </v>
   <v>       0.43750000       0.68750000       0.18750000 </v>
   <v>       0.93750000       0.68750000       0.18750000 </v>
   <v>       0.43750000       0.18750000       0.68750000 </v>
   <v>       0.93750000       0.18750000       0.68750000 </v>
   <v>       0.43750000       0.68750000       0.68750000 </v>
   <v>       0.93750000       0.68750000       0.68750000 </v>
   <v>       0.18475589       0.43750000       0.18750000 </v>
   <v>       0.68750000       0.43750000       0.18750000 </v>
   <v>       0.18750000       0.93750000       0.18750000 </v>
   <v>       0.68750000       0.93750000       0.18750000 </v>
   <v>       0.18750000       0.43750000       0.68750000 </v>
   <v>       0.68750000       0.43750000       0.68750000 </v>
   <v>       0.18750000       0.93750000       0.68750000 </v>
   <v>       0.68750000       0.93750000       0.68750000 </v>
   <v>       0.18750000       0.18750000       0.43750000 </v>
   <v>       0.68750000       0.18750000       0.43750000 </v>
   <v>       0.18750000       0.68750000       0.43750000 </v>
   <v>       0.68750000       0.68750000       0.43750000 </v>
   <v>       0.18750000       0.18750000       0.93750000 </v>
   <v>       0.68750000       0.18750000       0.93750000 </v>
   <v>       0.18750000       0.68750000       0.93750000 </v>
   <v>       0.68750000       0.68750000       0.93750000 </v>
   <v>       0.06250000       0.06250000       0.06250000 </v>
   <v>       0.56250000       0.06250000       0.06250000 </v>
   <v>       0.06250000       0.56250000       0.06250000 </v>
   <v>       0.56250000       0.56250000       0.06250000 </v>
   <v>       0.06250000       0.06250000       0.56250000 </v>
   <v>       0.56250000       0.06250000       0.56250000 </v>
   <v>       0.06250000       0.56250000       0.56250000 </v>
   <v>       0.56250000       0.56250000       0.56250000 </v>
   <v>       0.06250000       0.31250000       0.31250000 </v>
   <v>       0.56250000       0.31250000       0.31250000 </v>
   <v>       0.06250000       0.81250000       0.31250000 </v>
   <v>       0.56250000       0.81250000       0.31250000 </v>
   <v>       0.06250000       0.31250000       0.81250000 </v>
   <v>       0.56250000       0.31250000       0.81250000 </v>
   <v>       0.06250000       0.81250000       0.81250000 </v>
   <v>       0.56250000       0.81250000       0.81250000 </v>
   <v>       0.31250000       0.06250000       0.31250000 </v>
   <v>       0.81250000       0.06250000       0.31250000 </v>
   <v>       0.31250000       0.56250000       0.31250000 </v>
   <v>       0.81250000       0.56250000       0.31250000 </v>
   <v>       0.31250000       0.06250000       0.81250000 </v>
   <v>       0.81250000       0.06250000       0.81250000 </v>
   <v>       0.31250000       0.56250000       0.81250000 </v>
   <v>       0.81250000       0.56250000       0.81250000 </v>
   <v>       0.31250000       0.31250000       0.06250000 </v>
   <v>       0.81250000       0.31250000       0.06250000 </v>
   <v>       0.31250000       0.81250000       0.06250000 </v>
   <v>       0.81250000       0.81250000       0.06250000 </v>
   <v>       0.31250000       0.31250000       0.56250000 </v>
   <v>       0.81250000       0.31250000       0.56250000 </v>
   <v>       0.31250000       0.81250000       0.56250000 </v>
   <v>       0.81250000       0.81250000       0.56250000 </v>
  </varray>
 </structure>
</modeling>
