<?xml version="1.0" encoding="ISO-8859-1"?>
<modeling>
 <generator>
  <i name="program" type="string">vasp </i>
  <i name="version" type="string">5.4.1  </i>
  <i name="subversion" type="string">05Feb16 (build Mar 26 2016 11:58:25) complex                          parallel </i>
  <i name="platform" type="string">IFC91_ompi </i>
  <i name="date" type="string">2017 03 12 </i>
  <i name="time" type="string">12:13:57 </i>
 </generator>
 <incar>
  <i type="string" name="PREC">accurate</i>
  <i type="int" name="IALGO">    38</i>
  <i type="logical" name="ADDGRID"> T  </i>
  <i type="int" name="NELMIN">     5</i>
  <i type="int" name="IBRION">    -1</i>
  <i name="EDIFF">      0.00000001</i>
  <i name="ENCUT">    300.00000000</i>
  <i type="logical" name="LREAL"> F  </i>
  <i type="int" name="ISMEAR">     0</i>
  <i name="SIGMA">      0.05000000</i>
  <i type="logical" name="LWAVE"> F  </i>
  <i type="logical" name="LCHARG"> F  </i>
  <v type="int" name="KPOINT_BSE">    -1     0     0     0</v>
 </incar>
 <kpoints>
  <generation param="Monkhorst-Pack">
   <v type="int" name="divisions">       2        2        2 </v>
   <v name="usershift">      0.00000000       0.00000000       0.00000000 </v>
   <v name="genvec1">      0.50000000       0.00000000       0.00000000 </v>
   <v name="genvec2">      0.00000000       0.50000000       0.00000000 </v>
   <v name="genvec3">      0.00000000       0.00000000       0.50000000 </v>
   <v name="shift">      0.50000000       0.50000000       0.50000000 </v>
  </generation>
  <varray name="kpointlist" >
   <v>       0.25000000       0.25000000       0.25000000 </v>
   <v>      -0.25000000       0.25000000       0.25000000 </v>
   <v>       0.25000000      -0.25000000       0.25000000 </v>
   <v>      -0.25000000      -0.25000000       0.25000000 </v>
  </varray>
  <varray name="weights" >
   <v>       0.25000000 </v>
   <v>       0.25000000 </v>
   <v>       0.25000000 </v>
   <v>       0.25000000 </v>
  </varray>
 </kpoints>
 <parameters>
  <separator name="general" >
   <i type="string" name="SYSTEM">unknown system</i>
   <i type="logical" name="LCOMPAT"> F  </i>
  </separator>
  <separator name="electronic" >
   <i type="string" name="PREC">accura</i>
   <i name="ENMAX">    300.00000000</i>
   <i name="ENAUG">    322.06900000</i>
   <i name="EDIFF">      0.00000001</i>
   <i type="int" name="IALGO">    38</i>
   <i type="int" name="IWAVPR">    10</i>
   <i type="int" name="NBANDS">   164</i>
   <i name="NELECT">    256.00000000</i>
   <i type="int" name="TURBO">     0</i>
   <i type="int" name="IRESTART">     0</i>
   <i type="int" name="NREBOOT">     0</i>
   <i type="int" name="NMIN">     0</i>
   <i name="EREF">      0.00000000</i>
   <separator name="electronic smearing" >
    <i type="int" name="ISMEAR">     0</i>
    <i name="SIGMA">      0.05000000</i>
    <i name="KSPACING">      0.50000000</i>
    <i type="logical" name="KGAMMA"> T  </i>
   </separator>
   <separator name="electronic projectors" >
    <i type="logical" name="LREAL"> F  </i>
    <v name="ROPT">      0.00000000</v>
    <i type="int" name="LMAXPAW">  -100</i>
    <i type="int" name="LMAXMIX">     2</i>
    <i type="logical" name="NLSPLINE"> F  </i>
   </separator>
   <separator name="electronic startup" >
    <i type="int" name="ISTART">     0</i>
    <i type="int" name="ICHARG">     2</i>
    <i type="int" name="INIWAV">     1</i>
   </separator>
   <separator name="electronic spin" >
    <i type="int" name="ISPIN">     1</i>
    <i type="logical" name="LNONCOLLINEAR"> F  </i>
    <v name="MAGMOM">      1.00000000      1.00000000      1.00000000      1.00000000      1.00000000      1.00000000      1.00000000      1.00000000      1.00000000      1.00000000      1.00000000      1.00000000      1.00000000      1.00000000      1.00000000      1.00000000      1.00000000      1.00000000      1.00000000      1.00000000
      1.00000000      1.00000000      1.00000000      1.00000000      1.00000000      1.00000000      1.00000000      1.00000000      1.00000000      1.00000000      1.00000000      1.00000000      1.00000000      1.00000000      1.00000000      1.00000000      1.00000000      1.00000000      1.00000000      1.00000000
      1.00000000      1.00000000      1.00000000      1.00000000      1.00000000      1.00000000      1.00000000      1.00000000      1.00000000      1.00000000      1.00000000      1.00000000      1.00000000      1.00000000      1.00000000      1.00000000      1.00000000      1.00000000      1.00000000      1.00000000
      1.00000000      1.00000000      1.00000000      1.00000000</v>
    <i name="NUPDOWN">     -1.00000000</i>
    <i type="logical" name="LSORBIT"> F  </i>
    <v name="SAXIS">      0.00000000      0.00000000      1.00000000</v>
    <i type="logical" name="LSPIRAL"> F  </i>
    <v name="QSPIRAL">      0.00000000      0.00000000      0.00000000</v>
    <i type="logical" name="LZEROZ"> F  </i>
   </separator>
   <separator name="electronic exchange-correlation" >
    <i type="logical" name="LASPH"> F  </i>
    <i type="logical" name="LMETAGGA"> F  </i>
   </separator>
   <separator name="electronic convergence" >
    <i type="int" name="NELM">    60</i>
    <i type="int" name="NELMDL">    -5</i>
    <i type="int" name="NELMIN">     5</i>
    <i name="ENINI">    300.00000000</i>
    <separator name="electronic convergence detail" >
     <i type="logical" name="LDIAG"> T  </i>
     <i type="logical" name="LSUBROT"> F  </i>
     <i name="WEIMIN">      0.00000000</i>
     <i name="EBREAK">      0.00000000</i>
     <i name="DEPER">      0.30000000</i>
     <i type="int" name="NRMM">     4</i>
     <i name="TIME">      0.40000000</i>
    </separator>
   </separator>
   <separator name="electronic mixer" >
    <i name="AMIX">      0.40000000</i>
    <i name="BMIX">      1.00000000</i>
    <i name="AMIN">      0.10000000</i>
    <i name="AMIX_MAG">      1.60000000</i>
    <i name="BMIX_MAG">      1.00000000</i>
    <separator name="electronic mixer details" >
     <i type="int" name="IMIX">     4</i>
     <i type="logical" name="MIXFIRST"> F  </i>
     <i type="int" name="MAXMIX">   -45</i>
     <i name="WC">    100.00000000</i>
     <i type="int" name="INIMIX">     1</i>
     <i type="int" name="MIXPRE">     1</i>
     <i type="int" name="MREMOVE">     5</i>
    </separator>
   </separator>
   <separator name="electronic dipolcorrection" >
    <i type="logical" name="LDIPOL"> F  </i>
    <i type="logical" name="LMONO"> F  </i>
    <i type="int" name="IDIPOL">     0</i>
    <i name="EPSILON">      1.00000000</i>
    <v name="DIPOL">   -100.00000000   -100.00000000   -100.00000000</v>
    <i name="EFIELD">      0.00000000</i>
   </separator>
  </separator>
  <separator name="grids" >
   <i type="int" name="NGX">    64</i>
   <i type="int" name="NGY">    64</i>
   <i type="int" name="NGZ">    64</i>
   <i type="int" name="NGXF">   128</i>
   <i type="int" name="NGYF">   128</i>
   <i type="int" name="NGZF">   128</i>
   <i type="logical" name="ADDGRID"> T  </i>
  </separator>
  <separator name="ionic" >
   <i type="int" name="NSW">     0</i>
   <i type="int" name="IBRION">    -1</i>
   <i type="int" name="ISIF">     2</i>
   <i name="PSTRESS">      0.00000000</i>
   <i name="EDIFFG">      0.00000010</i>
   <i type="int" name="NFREE">     0</i>
   <i name="POTIM">      0.50000000</i>
   <i name="SMASS">     -3.00000000</i>
   <i name="SCALEE">      1.00000000</i>
  </separator>
  <separator name="ionic md" >
   <i name="TEBEG">      0.00010000</i>
   <i name="TEEND">      0.00010000</i>
   <i type="int" name="NBLOCK">     1</i>
   <i type="int" name="KBLOCK">     1</i>
   <i type="int" name="NPACO">   256</i>
   <i name="APACO">     16.00000000</i>
  </separator>
  <separator name="symmetry" >
   <i type="int" name="ISYM">     2</i>
   <i name="SYMPREC">      0.00001000</i>
  </separator>
  <separator name="dos" >
   <i type="logical" name="LORBIT"> F  </i>
   <v name="RWIGS">     -1.00000000</v>
   <i type="int" name="NEDOS">   301</i>
   <i name="EMIN">     10.00000000</i>
   <i name="EMAX">    -10.00000000</i>
   <i name="EFERMI">      0.00000000</i>
  </separator>
  <separator name="writing" >
   <i type="int" name="NWRITE">     2</i>
   <i type="logical" name="LWAVE"> F  </i>
   <i type="logical" name="LCHARG"> F  </i>
   <i type="logical" name="LPARD"> F  </i>
   <i type="logical" name="LVTOT"> F  </i>
   <i type="logical" name="LVHAR"> F  </i>
   <i type="logical" name="LELF"> F  </i>
   <i type="logical" name="LOPTICS"> F  </i>
   <v name="STM">      0.00000000      0.00000000      0.00000000      0.00000000      0.00000000      0.00000000      0.00000000</v>
  </separator>
  <separator name="performance" >
   <i type="int" name="NPAR">     4</i>
   <i type="int" name="NSIM">     4</i>
   <i type="int" name="NBLK">    -1</i>
   <i type="logical" name="LPLANE"> T  </i>
   <i type="logical" name="LSCALAPACK"> T  </i>
   <i type="logical" name="LSCAAWARE"> F  </i>
   <i type="logical" name="LSCALU"> F  </i>
   <i type="logical" name="LASYNC"> F  </i>
   <i type="logical" name="LORBITALREAL"> F  </i>
  </separator>
  <separator name="miscellaneous" >
   <i type="int" name="IDIOT">     3</i>
   <i type="logical" name="LMUSIC"> F  </i>
   <v name="POMASS">     28.08500000</v>
   <v name="DARWINR">      0.00000000</v>
   <v name="DARWINV">      1.00000000</v>
   <i type="logical" name="LCORR"> T  </i>
  </separator>
  <i type="logical" name="GGA_COMPAT"> T  </i>
  <i type="logical" name="LBERRY"> F  </i>
  <i type="int" name="ICORELEVEL">     0</i>
  <i type="logical" name="LDAU"> F  </i>
  <i type="int" name="I_CONSTRAINED_M">     0</i>
  <separator name="electronic exchange-correlation" >
   <i type="string" name="GGA">--</i>
   <i type="int" name="VOSKOWN">     0</i>
   <i type="logical" name="LHFCALC"> F  </i>
   <i type="string" name="PRECFOCK"></i>
   <i type="logical" name="LSYMGRAD"> F  </i>
   <i type="logical" name="LHFONE"> F  </i>
   <i type="logical" name="LRHFCALC"> F  </i>
   <i type="logical" name="LTHOMAS"> F  </i>
   <i type="logical" name="LMODELHF"> F  </i>
   <i name="ENCUT4O">     -1.00000000</i>
   <i type="int" name="EXXOEP">     0</i>
   <i type="int" name="FOURORBIT">     0</i>
   <i name="AEXX">      0.00000000</i>
   <i name="HFALPHA">      0.00000000</i>
   <i name="MCALPHA">      0.00000000</i>
   <i name="ALDAX">      1.00000000</i>
   <i name="AGGAX">      1.00000000</i>
   <i name="ALDAC">      1.00000000</i>
   <i name="AGGAC">      1.00000000</i>
   <i type="int" name="NKREDX">     1</i>
   <i type="int" name="NKREDY">     1</i>
   <i type="int" name="NKREDZ">     1</i>
   <i type="logical" name="SHIFTRED"> F  </i>
   <i type="logical" name="ODDONLY"> F  </i>
   <i type="logical" name="EVENONLY"> F  </i>
   <i type="int" name="LMAXFOCK">     0</i>
   <i type="int" name="NMAXFOCKAE">     0</i>
   <i type="logical" name="LFOCKAEDFT"> F  </i>
   <i name="HFSCREEN">      0.00000000</i>
   <i name="HFSCREENC">      0.00000000</i>
   <i type="int" name="NBANDSGWLOW">     0</i>
  </separator>
  <separator name="vdW DFT" >
   <i type="logical" name="LUSE_VDW"> F  </i>
   <i name="Zab_VDW">     -0.84910000</i>
   <i name="PARAM1">      0.12340000</i>
   <i name="PARAM2">      1.00000000</i>
   <i name="PARAM3">      0.00000000</i>
  </separator>
  <separator name="model GW" >
   <i type="int" name="MODEL_GW">     0</i>
   <i name="MODEL_EPS0">     12.24990743</i>
   <i name="MODEL_ALPHA">      1.00000000</i>
  </separator>
  <separator name="linear response parameters" >
   <i type="logical" name="LEPSILON"> F  </i>
   <i type="logical" name="LRPA"> F  </i>
   <i type="logical" name="LNABLA"> F  </i>
   <i type="logical" name="LVEL"> F  </i>
   <i type="int" name="KINTER">     0</i>
   <i name="CSHIFT">      0.10000000</i>
   <i name="OMEGAMAX">     -1.00000000</i>
   <i name="DEG_THRESHOLD">      0.00200000</i>
  </separator>
  <separator name="orbital magnetization" >
   <i type="logical" name="NUCIND"> F  </i>
   <v name="MAGPOS">      0.00000000      0.00000000      0.00000000</v>
   <i type="logical" name="LNICSALL"> T  </i>
   <i type="logical" name="ORBITALMAG"> F  </i>
   <i type="logical" name="LMAGBLOCH"> F  </i>
   <i type="logical" name="LCHIMAG"> F  </i>
   <i type="logical" name="LGAUGE"> T  </i>
   <i type="int" name="MAGATOM">     0</i>
   <v name="MAGDIPOL">      0.00000000      0.00000000      0.00000000</v>
   <v name="AVECCONST">      0.00000000      0.00000000      0.00000000</v>
  </separator>
  <separator name="response functions" >
   <i type="logical" name="LADDER"> F  </i>
   <i type="logical" name="LFXC"> F  </i>
   <i type="logical" name="LHARTREE"> T  </i>
   <i type="int" name="IBSE">     0</i>
   <v type="int" name="KPOINT">    -1     0     0     0</v>
   <i type="logical" name="LTCTE"> F  </i>
   <i type="logical" name="LTETE"> F  </i>
   <i type="logical" name="LTRIPLET"> F  </i>
   <i type="logical" name="LFXCEPS"> F  </i>
   <i type="logical" name="LFXHEG"> F  </i>
   <i type="int" name="NATURALO">     0</i>
   <i type="logical" name="L2ORDER"> F  </i>
   <i type="logical" name="LUSEW"> F  </i>
   <i name="ENCUTGW">     -2.00000000</i>
   <i name="ENCUTGWSOFT">     -2.00000000</i>
   <i name="ENCUTLF">     -1.00000000</i>
   <i type="int" name="LMAXMP2">    -1</i>
   <i name="SCISSOR">      0.00000000</i>
   <i type="int" name="NOMEGA">     0</i>
   <i type="int" name="NOMEGAR">     0</i>
   <i type="int" name="NBANDSGW">    -1</i>
   <i type="int" name="NBANDSO">    -1</i>
   <i type="int" name="NBANDSV">    -1</i>
   <i type="int" name="NELM">     1</i>
   <i type="int" name="NELMHF">     1</i>
   <i type="int" name="DIM">     3</i>
   <i type="int" name="ANTIRES">     0</i>
   <i name="OMEGAMAX">    -30.00000000</i>
   <i name="OMEGAMIN">    -30.00000000</i>
   <i name="OMEGATL">   -200.00000000</i>
   <i type="int" name="OMEGAGRID">     0</i>
   <i name="CSHIFT">     -0.10000000</i>
   <i type="logical" name="SELFENERGY"> F  </i>
   <i type="logical" name="LSPECTRAL"> F  </i>
   <i type="logical" name="LSPECTRALGW"> F  </i>
   <i type="logical" name="LSINGLES"> F  </i>
   <i type="logical" name="LFERMIGW"> F  </i>
   <i type="logical" name="ODDONLYGW"> F  </i>
   <i type="logical" name="EVENONLYGW"> F  </i>
   <i type="int" name="NKREDLFX">     1</i>
   <i type="int" name="NKREDLFY">     1</i>
   <i type="int" name="NKREDLFZ">     1</i>
   <i type="int" name="MAXMEM">  1800</i>
   <i type="int" name="TELESCOPE">     0</i>
   <i type="int" name="TAUPAR">     1</i>
   <i type="int" name="OMEGAPAR">    -1</i>
   <i name="LAMBDA">      1.00000000</i>
  </separator>
  <separator name="External order field" >
   <i name="OFIELD_KAPPA">      0.00000000</i>
   <v name="OFIELD_K">      0.00000000      0.00000000      0.00000000</v>
   <i name="OFIELD_Q6_NEAR">      0.00000000</i>
   <i name="OFIELD_Q6_FAR">      0.00000000</i>
   <i name="OFIELD_A">      0.00000000</i>
  </separator>
 </parameters>
 <atominfo>
  <atoms>      64 </atoms>
  <types>       1 </types>
  <array name="atoms" >
   <dimension dim="1">ion</dimension>
   <field type="string">element</field>
   <field type="int">atomtype</field>
   <set>
    <rc><c>Si</c><c>   1</c></rc>
    <rc><c>Si</c><c>   1</c></rc>
    <rc><c>Si</c><c>   1</c></rc>
    <rc><c>Si</c><c>   1</c></rc>
    <rc><c>Si</c><c>   1</c></rc>
    <rc><c>Si</c><c>   1</c></rc>
    <rc><c>Si</c><c>   1</c></rc>
    <rc><c>Si</c><c>   1</c></rc>
    <rc><c>Si</c><c>   1</c></rc>
    <rc><c>Si</c><c>   1</c></rc>
    <rc><c>Si</c><c>   1</c></rc>
    <rc><c>Si</c><c>   1</c></rc>
    <rc><c>Si</c><c>   1</c></rc>
    <rc><c>Si</c><c>   1</c></rc>
    <rc><c>Si</c><c>   1</c></rc>
    <rc><c>Si</c><c>   1</c></rc>
    <rc><c>Si</c><c>   1</c></rc>
    <rc><c>Si</c><c>   1</c></rc>
    <rc><c>Si</c><c>   1</c></rc>
    <rc><c>Si</c><c>   1</c></rc>
    <rc><c>Si</c><c>   1</c></rc>
    <rc><c>Si</c><c>   1</c></rc>
    <rc><c>Si</c><c>   1</c></rc>
    <rc><c>Si</c><c>   1</c></rc>
    <rc><c>Si</c><c>   1</c></rc>
    <rc><c>Si</c><c>   1</c></rc>
    <rc><c>Si</c><c>   1</c></rc>
    <rc><c>Si</c><c>   1</c></rc>
    <rc><c>Si</c><c>   1</c></rc>
    <rc><c>Si</c><c>   1</c></rc>
    <rc><c>Si</c><c>   1</c></rc>
    <rc><c>Si</c><c>   1</c></rc>
    <rc><c>Si</c><c>   1</c></rc>
    <rc><c>Si</c><c>   1</c></rc>
    <rc><c>Si</c><c>   1</c></rc>
    <rc><c>Si</c><c>   1</c></rc>
    <rc><c>Si</c><c>   1</c></rc>
    <rc><c>Si</c><c>   1</c></rc>
    <rc><c>Si</c><c>   1</c></rc>
    <rc><c>Si</c><c>   1</c></rc>
    <rc><c>Si</c><c>   1</c></rc>
    <rc><c>Si</c><c>   1</c></rc>
    <rc><c>Si</c><c>   1</c></rc>
    <rc><c>Si</c><c>   1</c></rc>
    <rc><c>Si</c><c>   1</c></rc>
    <rc><c>Si</c><c>   1</c></rc>
    <rc><c>Si</c><c>   1</c></rc>
    <rc><c>Si</c><c>   1</c></rc>
    <rc><c>Si</c><c>   1</c></rc>
    <rc><c>Si</c><c>   1</c></rc>
    <rc><c>Si</c><c>   1</c></rc>
    <rc><c>Si</c><c>   1</c></rc>
    <rc><c>Si</c><c>   1</c></rc>
    <rc><c>Si</c><c>   1</c></rc>
    <rc><c>Si</c><c>   1</c></rc>
    <rc><c>Si</c><c>   1</c></rc>
    <rc><c>Si</c><c>   1</c></rc>
    <rc><c>Si</c><c>   1</c></rc>
    <rc><c>Si</c><c>   1</c></rc>
    <rc><c>Si</c><c>   1</c></rc>
    <rc><c>Si</c><c>   1</c></rc>
    <rc><c>Si</c><c>   1</c></rc>
    <rc><c>Si</c><c>   1</c></rc>
    <rc><c>Si</c><c>   1</c></rc>
   </set>
  </array>
  <array name="atomtypes" >
   <dimension dim="1">type</dimension>
   <field type="int">atomspertype</field>
   <field type="string">element</field>
   <field>mass</field>
   <field>valence</field>
   <field type="string">pseudopotential</field>
   <set>
    <rc><c>  64</c><c>Si</c><c>     28.08500000</c><c>      4.00000000</c><c>  PAW_PBE Si 05Jan2001                  </c></rc>
   </set>
  </array>
 </atominfo>
 <structure name="initialpos" >
  <crystal>
   <varray name="basis" >
    <v>      10.93252578       0.00000000       0.00000000 </v>
    <v>       0.00000000      10.93252578       0.00000000 </v>
    <v>       0.00000000       0.00000000      10.93252578 </v>
   </varray>
   <i name="volume">   1306.65679237 </i>
   <varray name="rec_basis" >
    <v>       0.09147017       0.00000000       0.00000000 </v>
    <v>       0.00000000       0.09147017       0.00000000 </v>
    <v>       0.00000000       0.00000000       0.09147017 </v>
   </varray>
  </crystal>
  <varray name="positions" >
   <v>       0.44024411       0.43750000       0.43750000 </v>
   <v>       0.93750000       0.43750000       0.43750000 </v>
   <v>       0.43750000       0.93750000       0.43750000 </v>
   <v>       0.93750000       0.93750000       0.43750000 </v>
   <v>       0.43750000       0.43750000       0.93750000 </v>
   <v>       0.93750000       0.43750000       0.93750000 </v>
   <v>       0.43750000       0.93750000       0.93750000 </v>
   <v>       0.93750000       0.93750000       0.93750000 </v>
   <v>       0.43750000       0.18750000       0.18750000 </v>
   <v>       0.93750000       0.18750000       0.18750000 </v>
   <v>       0.43750000       0.68750000       0.18750000 </v>
   <v>       0.93750000       0.68750000       0.18750000 </v>
   <v>       0.43750000       0.18750000       0.68750000 </v>
   <v>       0.93750000       0.18750000       0.68750000 </v>
   <v>       0.43750000       0.68750000       0.68750000 </v>
   <v>       0.93750000       0.68750000       0.68750000 </v>
   <v>       0.18750000       0.43750000       0.18750000 </v>
   <v>       0.68750000       0.43475589       0.18750000 </v>
   <v>       0.18750000       0.93750000       0.18750000 </v>
   <v>       0.68750000       0.93750000       0.18750000 </v>
   <v>       0.18750000       0.43750000       0.68750000 </v>
   <v>       0.68750000       0.43750000       0.68750000 </v>
   <v>       0.18750000       0.93750000       0.68750000 </v>
   <v>       0.68750000       0.93750000       0.68750000 </v>
   <v>       0.18750000       0.18750000       0.43750000 </v>
   <v>       0.68750000       0.18750000       0.43750000 </v>
   <v>       0.18750000       0.68750000       0.43750000 </v>
   <v>       0.68750000       0.68750000       0.43750000 </v>
   <v>       0.18750000       0.18750000       0.93750000 </v>
   <v>       0.68750000       0.18750000       0.93750000 </v>
   <v>       0.18750000       0.68750000       0.93750000 </v>
   <v>       0.68750000       0.68750000       0.93750000 </v>
   <v>       0.06250000       0.06250000       0.06250000 </v>
   <v>       0.56250000       0.06250000       0.06250000 </v>
   <v>       0.06250000       0.56250000       0.06250000 </v>
   <v>       0.56250000       0.56250000       0.06250000 </v>
   <v>       0.06250000       0.06250000       0.56250000 </v>
   <v>       0.56250000       0.06250000       0.56250000 </v>
   <v>       0.06250000       0.56250000       0.56250000 </v>
   <v>       0.56250000       0.56250000       0.56250000 </v>
   <v>       0.06250000       0.31250000       0.31250000 </v>
   <v>       0.56250000       0.31250000       0.31250000 </v>
   <v>       0.06250000       0.81250000       0.31250000 </v>
   <v>       0.56250000       0.81250000       0.31250000 </v>
   <v>       0.06250000       0.31250000       0.81250000 </v>
   <v>       0.56250000       0.31250000       0.81250000 </v>
   <v>       0.06250000       0.81250000       0.81250000 </v>
   <v>       0.56250000       0.81250000       0.81250000 </v>
   <v>       0.31250000       0.06250000       0.31250000 </v>
   <v>       0.81250000       0.06250000       0.31250000 </v>
   <v>       0.31250000       0.56250000       0.31250000 </v>
   <v>       0.81250000       0.56250000       0.31250000 </v>
   <v>       0.31250000       0.06250000       0.81250000 </v>
   <v>       0.81250000       0.06250000       0.81250000 </v>
   <v>       0.31250000       0.56250000       0.81250000 </v>
   <v>       0.81250000       0.56250000       0.81250000 </v>
   <v>       0.31250000       0.31250000       0.06250000 </v>
   <v>       0.81250000       0.31250000       0.06250000 </v>
   <v>       0.31250000       0.81250000       0.06250000 </v>
   <v>       0.81250000       0.81250000       0.06250000 </v>
   <v>       0.31250000       0.31250000       0.56250000 </v>
   <v>       0.81250000       0.31250000       0.56250000 </v>
   <v>       0.31250000       0.81250000       0.56250000 </v>
   <v>       0.81250000       0.81250000       0.56250000 </v>
  </varray>
 </structure>
 <calculation>
  <scstep>
   <time name="dav">    4.19    4.19</time>
   <time name="total">    4.37    4.37</time>
   <energy>
    <i name="alphaZ">    105.52440745 </i>
    <i name="ewald">  -7265.47126639 </i>
    <i name="hartreedc">   -361.71238209 </i>
    <i name="XCdc">   -597.75714705 </i>
    <i name="pawpsdc">   5639.92317535 </i>
    <i name="pawaedc">  -4513.95313856 </i>
    <i name="eentropy">     -0.00118933 </i>
    <i name="bandstr">    856.88110419 </i>
    <i name="atom">   6596.14994790 </i>
    <i name="e_fr_energy">    459.58351148 </i>
    <i name="e_wo_entrp">    459.58470081 </i>
    <i name="e_0_energy">    459.58410614 </i>
   </energy>
  </scstep>
  <scstep>
   <time name="dav">    4.79    4.79</time>
   <time name="total">    4.79    4.80</time>
   <energy>
    <i name="e_fr_energy">   -299.63211130 </i>
    <i name="e_wo_entrp">   -299.63211130 </i>
    <i name="e_0_energy">   -299.63211130 </i>
   </energy>
  </scstep>
  <scstep>
   <time name="dav">    4.84    4.84</time>
   <time name="total">    4.84    4.85</time>
   <energy>
    <i name="e_fr_energy">   -350.91381133 </i>
    <i name="e_wo_entrp">   -350.91381133 </i>
    <i name="e_0_energy">   -350.91381133 </i>
   </energy>
  </scstep>
  <scstep>
   <time name="dav">    4.85    4.85</time>
   <time name="total">    4.85    4.86</time>
   <energy>
    <i name="e_fr_energy">   -352.26849511 </i>
    <i name="e_wo_entrp">   -352.26849511 </i>
    <i name="e_0_energy">   -352.26849511 </i>
   </energy>
  </scstep>
  <scstep>
   <time name="dav">    4.80    4.81</time>
   <time name="total">    5.03    5.04</time>
   <energy>
    <i name="e_fr_energy">   -352.31322862 </i>
    <i name="e_wo_entrp">   -352.31322862 </i>
    <i name="e_0_energy">   -352.31322862 </i>
   </energy>
  </scstep>
  <scstep>
   <time name="dav">    4.70    4.70</time>
   <time name="total">    5.09    5.10</time>
   <energy>
    <i name="e_fr_energy">   -348.58461420 </i>
    <i name="e_wo_entrp">   -348.58461420 </i>
    <i name="e_0_energy">   -348.58461420 </i>
   </energy>
  </scstep>
  <scstep>
   <time name="dav">    4.62    4.63</time>
   <time name="total">    5.02    5.04</time>
   <energy>
    <i name="e_fr_energy">   -346.87195575 </i>
    <i name="e_wo_entrp">   -346.87195575 </i>
    <i name="e_0_energy">   -346.87195575 </i>
   </energy>
  </scstep>
  <scstep>
   <time name="dav">    4.77    4.78</time>
   <time name="total">    5.16    5.18</time>
   <energy>
    <i name="e_fr_energy">   -346.89822471 </i>
    <i name="e_wo_entrp">   -346.89822471 </i>
    <i name="e_0_energy">   -346.89822471 </i>
   </energy>
  </scstep>
  <scstep>
   <time name="dav">    4.90    4.91</time>
   <time name="total">    5.29    5.31</time>
   <energy>
    <i name="e_fr_energy">   -346.90495447 </i>
    <i name="e_wo_entrp">   -346.90495447 </i>
    <i name="e_0_energy">   -346.90495447 </i>
   </energy>
  </scstep>
  <scstep>
   <time name="dav">    4.54    4.55</time>
   <time name="total">    4.94    4.95</time>
   <energy>
    <i name="e_fr_energy">   -346.90700726 </i>
    <i name="e_wo_entrp">   -346.90700726 </i>
    <i name="e_0_energy">   -346.90700726 </i>
   </energy>
  </scstep>
  <scstep>
   <time name="dav">    4.83    4.84</time>
   <time name="total">    5.23    5.24</time>
   <energy>
    <i name="e_fr_energy">   -346.90698233 </i>
    <i name="e_wo_entrp">   -346.90698233 </i>
    <i name="e_0_energy">   -346.90698233 </i>
   </energy>
  </scstep>
  <scstep>
   <time name="dav">    4.71    4.72</time>
   <time name="total">    5.11    5.12</time>
   <energy>
    <i name="e_fr_energy">   -346.90699731 </i>
    <i name="e_wo_entrp">   -346.90699731 </i>
    <i name="e_0_energy">   -346.90699731 </i>
   </energy>
  </scstep>
  <scstep>
   <time name="dav">    4.73    4.74</time>
   <time name="total">    5.13    5.15</time>
   <energy>
    <i name="e_fr_energy">   -346.90699777 </i>
    <i name="e_wo_entrp">   -346.90699777 </i>
    <i name="e_0_energy">   -346.90699777 </i>
   </energy>
  </scstep>
  <scstep>
   <time name="dav">    4.85    4.86</time>
   <time name="total">    5.24    5.26</time>
   <energy>
    <i name="e_fr_energy">   -346.90699836 </i>
    <i name="e_wo_entrp">   -346.90699836 </i>
    <i name="e_0_energy">   -346.90699836 </i>
   </energy>
  </scstep>
  <scstep>
   <time name="dav">    4.12    4.13</time>
   <time name="total">    4.52    4.53</time>
   <energy>
    <i name="e_fr_energy">   -346.90699811 </i>
    <i name="e_wo_entrp">   -346.90699811 </i>
    <i name="e_0_energy">   -346.90699811 </i>
   </energy>
  </scstep>
  <scstep>
   <time name="dav">    3.27    3.28</time>
   <time name="total">    3.67    3.68</time>
   <energy>
    <i name="e_fr_energy">   -346.90699819 </i>
    <i name="e_wo_entrp">   -346.90699819 </i>
    <i name="e_0_energy">   -346.90699819 </i>
   </energy>
  </scstep>
  <scstep>
   <time name="dav">    3.22    3.23</time>
   <time name="total">    3.61    3.63</time>
   <energy>
    <i name="e_fr_energy">   -346.90699818 </i>
    <i name="e_wo_entrp">   -346.90699818 </i>
    <i name="e_0_energy">   -346.90699818 </i>
   </energy>
  </scstep>
  <scstep>
   <time name="dav">    3.23    3.23</time>
   <time name="total">    3.62    3.65</time>
   <energy>
    <i name="e_fr_energy">   -346.90699819 </i>
    <i name="e_wo_entrp">   -346.90699819 </i>
    <i name="e_0_energy">   -346.90699819 </i>
   </energy>
  </scstep>
  <scstep>
   <time name="dav">    3.24    3.25</time>
   <time name="total">    3.41    3.46</time>
   <energy>
    <i name="alphaZ">    105.52440745 </i>
    <i name="ewald">  -7265.47126639 </i>
    <i name="hartreedc">   -485.14318868 </i>
    <i name="XCdc">   -577.61229478 </i>
    <i name="pawpsdc">  27883.47376366 </i>
    <i name="pawaedc"> -26764.19169671 </i>
    <i name="eentropy">      0.00000000 </i>
    <i name="bandstr">    160.36332935 </i>
    <i name="atom">   6596.14994790 </i>
    <i name="e_fr_energy">   -346.90699820 </i>
    <i name="e_wo_entrp">   -346.90699820 </i>
    <i name="e_0_energy">   -346.90699820 </i>
   </energy>
  </scstep>
  <structure>
   <crystal>
    <varray name="basis" >
     <v>      10.93252578       0.00000000       0.00000000 </v>
     <v>       0.00000000      10.93252578       0.00000000 </v>
     <v>       0.00000000       0.00000000      10.93252578 </v>
    </varray>
    <i name="volume">   1306.65679237 </i>
    <varray name="rec_basis" >
     <v>       0.09147017       0.00000000       0.00000000 </v>
     <v>       0.00000000       0.09147017       0.00000000 </v>
     <v>       0.00000000       0.00000000       0.09147017 </v>
    </varray>
   </crystal>
   <varray name="positions" >
    <v>       0.44024411       0.43750000       0.43750000 </v>
    <v>       0.93750000       0.43750000       0.43750000 </v>
    <v>       0.43750000       0.93750000       0.43750000 </v>
    <v>       0.93750000       0.93750000       0.43750000 </v>
    <v>       0.43750000       0.43750000       0.93750000 </v>
    <v>       0.93750000       0.43750000       0.93750000 </v>
    <v>       0.43750000       0.93750000       0.93750000 </v>
    <v>       0.93750000       0.93750000       0.93750000 </v>
    <v>       0.43750000       0.18750000       0.18750000 </v>
    <v>       0.93750000       0.18750000       0.18750000 </v>
    <v>       0.43750000       0.68750000       0.18750000 </v>
    <v>       0.93750000       0.68750000       0.18750000 </v>
    <v>       0.43750000       0.18750000       0.68750000 </v>
    <v>       0.93750000       0.18750000       0.68750000 </v>
    <v>       0.43750000       0.68750000       0.68750000 </v>
    <v>       0.93750000       0.68750000       0.68750000 </v>
    <v>       0.18750000       0.43750000       0.18750000 </v>
    <v>       0.68750000       0.43475589       0.18750000 </v>
    <v>       0.18750000       0.93750000       0.18750000 </v>
    <v>       0.68750000       0.93750000       0.18750000 </v>
    <v>       0.18750000       0.43750000       0.68750000 </v>
    <v>       0.68750000       0.43750000       0.68750000 </v>
    <v>       0.18750000       0.93750000       0.68750000 </v>
    <v>       0.68750000       0.93750000       0.68750000 </v>
    <v>       0.18750000       0.18750000       0.43750000 </v>
    <v>       0.68750000       0.18750000       0.43750000 </v>
    <v>       0.18750000       0.68750000       0.43750000 </v>
    <v>       0.68750000       0.68750000       0.43750000 </v>
    <v>       0.18750000       0.18750000       0.93750000 </v>
    <v>       0.68750000       0.18750000       0.93750000 </v>
    <v>       0.18750000       0.68750000       0.93750000 </v>
    <v>       0.68750000       0.68750000       0.93750000 </v>
    <v>       0.06250000       0.06250000       0.06250000 </v>
    <v>       0.56250000       0.06250000       0.06250000 </v>
    <v>       0.06250000       0.56250000       0.06250000 </v>
    <v>       0.56250000       0.56250000       0.06250000 </v>
    <v>       0.06250000       0.06250000       0.56250000 </v>
    <v>       0.56250000       0.06250000       0.56250000 </v>
    <v>       0.06250000       0.56250000       0.56250000 </v>
    <v>       0.56250000       0.56250000       0.56250000 </v>
    <v>       0.06250000       0.31250000       0.31250000 </v>
    <v>       0.56250000       0.31250000       0.31250000 </v>
    <v>       0.06250000       0.81250000       0.31250000 </v>
    <v>       0.56250000       0.81250000       0.31250000 </v>
    <v>       0.06250000       0.31250000       0.81250000 </v>
    <v>       0.56250000       0.31250000       0.81250000 </v>
    <v>       0.06250000       0.81250000       0.81250000 </v>
    <v>       0.56250000       0.81250000       0.81250000 </v>
    <v>       0.31250000       0.06250000       0.31250000 </v>
    <v>       0.81250000       0.06250000       0.31250000 </v>
    <v>       0.31250000       0.56250000       0.31250000 </v>
    <v>       0.81250000       0.56250000       0.31250000 </v>
    <v>       0.31250000       0.06250000       0.81250000 </v>
    <v>       0.81250000       0.06250000       0.81250000 </v>
    <v>       0.31250000       0.56250000       0.81250000 </v>
    <v>       0.81250000       0.56250000       0.81250000 </v>
    <v>       0.31250000       0.31250000       0.06250000 </v>
    <v>       0.81250000       0.31250000       0.06250000 </v>
    <v>       0.31250000       0.81250000       0.06250000 </v>
    <v>       0.81250000       0.81250000       0.06250000 </v>
    <v>       0.31250000       0.31250000       0.56250000 </v>
    <v>       0.81250000       0.31250000       0.56250000 </v>
    <v>       0.31250000       0.81250000       0.56250000 </v>
    <v>       0.81250000       0.81250000       0.56250000 </v>
   </varray>
  </structure>
  <varray name="forces" >
   <v>      -0.38426486       0.01287608      -0.00277702 </v>
   <v>       0.00321494       0.01276928       0.00266620 </v>
   <v>       0.00154067       0.00002514      -0.00022765 </v>
   <v>       0.00005535       0.00000514       0.00022604 </v>
   <v>      -0.00134807       0.01277366      -0.00266474 </v>
   <v>      -0.00295187       0.01288339       0.00276885 </v>
   <v>      -0.01177452       0.00000311      -0.00023850 </v>
   <v>       0.00035058       0.00002620       0.00022437 </v>
   <v>      -0.01859129      -0.00302512       0.00556843 </v>
   <v>       0.00566741      -0.00557439      -0.00254096 </v>
   <v>      -0.00721842      -0.00298753       0.00001629 </v>
   <v>      -0.00556977      -0.00541436      -0.00291071 </v>
   <v>      -0.01091078      -0.00367951       0.00288947 </v>
   <v>      -0.00184775      -0.00125531       0.00000555 </v>
   <v>      -0.01474248      -0.00379622      -0.00253962 </v>
   <v>       0.00183673      -0.00124728      -0.00045707 </v>
   <v>       0.00565742      -0.00398952       0.00556214 </v>
   <v>       0.00587887       0.38426474      -0.00563082 </v>
   <v>       0.00101159      -0.00005633      -0.00185659 </v>
   <v>       0.00102129      -0.00078095       0.00184681 </v>
   <v>       0.00564895       0.01422348      -0.00554330 </v>
   <v>       0.00580394       0.00146101       0.00568733 </v>
   <v>       0.00102138      -0.00034943       0.00186304 </v>
   <v>       0.00101380       0.00040452      -0.00184101 </v>
   <v>       0.00542438       0.00454303      -0.00454121 </v>
   <v>       0.00302868      -0.01154324       0.00300193 </v>
   <v>       0.00541425      -0.00656833       0.00451268 </v>
   <v>       0.00312515       0.00003971      -0.00277892 </v>
   <v>       0.00124667      -0.00287753       0.00161576 </v>
   <v>       0.00379798      -0.00396449      -0.00592429 </v>
   <v>       0.00125006       0.00084514      -0.00163227 </v>
   <v>       0.00369944      -0.00749900       0.00578315 </v>
   <v>       0.00010560       0.00009087       0.00146438 </v>
   <v>       0.00712073       0.00096354       0.00158683 </v>
   <v>       0.00150747       0.00208472       0.00184941 </v>
   <v>       0.05946218      -0.09184845       0.06188645 </v>
   <v>       0.00136862       0.00114200       0.00141317 </v>
   <v>      -0.00075650       0.00025704       0.00184882 </v>
   <v>       0.00040205      -0.00522061       0.00158556 </v>
   <v>       0.09707948       0.06753954       0.06697867 </v>
   <v>      -0.00120081       0.00056607       0.00029819 </v>
   <v>       0.02957475      -0.16184484      -0.00010786 </v>
   <v>       0.00001440      -0.00121864       0.00000980 </v>
   <v>      -0.00238532      -0.00064747      -0.00030308 </v>
   <v>      -0.00006829      -0.00686946       0.00008926 </v>
   <v>      -0.00268432       0.00026529       0.00000386 </v>
   <v>      -0.00128951      -0.00022022       0.00000184 </v>
   <v>       0.00556006      -0.00130530      -0.00008386 </v>
   <v>      -0.00206783      -0.00155293       0.00052486 </v>
   <v>      -0.00024890      -0.00035768      -0.00020736 </v>
   <v>       0.09217470      -0.05952422       0.05972518 </v>
   <v>      -0.06124089      -0.09396504      -0.06004336 </v>
   <v>       0.00537213      -0.00013380      -0.00007517 </v>
   <v>      -0.00124791      -0.00140848       0.00010653 </v>
   <v>      -0.00211284      -0.00737742       0.00021197 </v>
   <v>      -0.00058084       0.00072370      -0.00025071 </v>
   <v>      -0.00051013       0.00271822      -0.00209445 </v>
   <v>       0.06673945      -0.09508064      -0.06673131 </v>
   <v>       0.00673655       0.00006682      -0.00133057 </v>
   <v>       0.00037527       0.00102122      -0.00165415 </v>
   <v>       0.09373514       0.05477169      -0.06169171 </v>
   <v>       0.00093298       0.00238244      -0.00183085 </v>
   <v>      -0.00067978       0.00142273      -0.00200351 </v>
   <v>       0.00132260       0.00002419      -0.00131018 </v>
  </varray>
  <varray name="stress" >
   <v>       0.00158324       0.00004071      -0.33459188 </v>
   <v>       0.00004074       0.00167066       0.33512418 </v>
   <v>      -0.33459184       0.33512418       0.02064507 </v>
  </varray>
  <energy>
   <i name="e_fr_energy">   -346.90699820 </i>
   <i name="e_wo_entrp">   -346.90699820 </i>
   <i name="e_0_energy">      0.00000000 </i>
  </energy>
  <time name="totalsc">   98.57   98.92</time>
  <eigenvalues>
   <array>
    <dimension dim="1">band</dimension>
    <dimension dim="2">kpoint</dimension>
    <dimension dim="3">spin</dimension>
    <field>eigene</field>
    <field>occ</field>
    <set>
     <set comment="spin 1">
      <set comment="kpoint 1">
       <r>   -5.9932    1.0000 </r>
       <r>   -5.4687    1.0000 </r>
       <r>   -5.4643    1.0000 </r>
       <r>   -5.4613    1.0000 </r>
       <r>   -4.9694    1.0000 </r>
       <r>   -4.9651    1.0000 </r>
       <r>   -4.9620    1.0000 </r>
       <r>   -4.5323    1.0000 </r>
       <r>   -4.4365    1.0000 </r>
       <r>   -4.4318    1.0000 </r>
       <r>   -4.4291    1.0000 </r>
       <r>   -4.0258    1.0000 </r>
       <r>   -4.0191    1.0000 </r>
       <r>   -4.0163    1.0000 </r>
       <r>   -4.0146    1.0000 </r>
       <r>   -4.0142    1.0000 </r>
       <r>   -4.0086    1.0000 </r>
       <r>   -3.8282    1.0000 </r>
       <r>   -3.8244    1.0000 </r>
       <r>   -3.8203    1.0000 </r>
       <r>   -3.3333    1.0000 </r>
       <r>   -3.3274    1.0000 </r>
       <r>   -3.3244    1.0000 </r>
       <r>   -2.9627    1.0000 </r>
       <r>   -2.9591    1.0000 </r>
       <r>   -2.9557    1.0000 </r>
       <r>   -2.7996    1.0000 </r>
       <r>   -2.7931    1.0000 </r>
       <r>   -2.7909    1.0000 </r>
       <r>   -2.7892    1.0000 </r>
       <r>   -2.7885    1.0000 </r>
       <r>   -2.7836    1.0000 </r>
       <r>   -1.2572    1.0000 </r>
       <r>   -1.2517    1.0000 </r>
       <r>   -1.2486    1.0000 </r>
       <r>   -1.2476    1.0000 </r>
       <r>   -1.2458    1.0000 </r>
       <r>   -1.2423    1.0000 </r>
       <r>   -1.1544    1.0000 </r>
       <r>   -1.1512    1.0000 </r>
       <r>   -1.1477    1.0000 </r>
       <r>   -1.0375    1.0000 </r>
       <r>   -1.0327    1.0000 </r>
       <r>   -1.0278    1.0000 </r>
       <r>   -0.9539    1.0000 </r>
       <r>   -0.9464    1.0000 </r>
       <r>   -0.9399    1.0000 </r>
       <r>   -0.2446    1.0000 </r>
       <r>   -0.1686    1.0000 </r>
       <r>   -0.1638    1.0000 </r>
       <r>   -0.1610    1.0000 </r>
       <r>   -0.1578    1.0000 </r>
       <r>   -0.1565    1.0000 </r>
       <r>   -0.1530    1.0000 </r>
       <r>    0.7085    1.0000 </r>
       <r>    0.7148    1.0000 </r>
       <r>    0.7196    1.0000 </r>
       <r>    1.0427    1.0000 </r>
       <r>    1.0473    1.0000 </r>
       <r>    1.0512    1.0000 </r>
       <r>    1.6519    1.0000 </r>
       <r>    1.6550    1.0000 </r>
       <r>    1.6567    1.0000 </r>
       <r>    1.6573    1.0000 </r>
       <r>    1.6592    1.0000 </r>
       <r>    1.6613    1.0000 </r>
       <r>    1.7133    1.0000 </r>
       <r>    1.7163    1.0000 </r>
       <r>    1.7188    1.0000 </r>
       <r>    2.2654    1.0000 </r>
       <r>    2.2678    1.0000 </r>
       <r>    2.2698    1.0000 </r>
       <r>    2.3650    1.0000 </r>
       <r>    2.3660    1.0000 </r>
       <r>    2.3707    1.0000 </r>
       <r>    2.3726    1.0000 </r>
       <r>    2.3749    1.0000 </r>
       <r>    2.3754    1.0000 </r>
       <r>    2.4219    1.0000 </r>
       <r>    2.4255    1.0000 </r>
       <r>    2.4279    1.0000 </r>
       <r>    2.7282    1.0000 </r>
       <r>    2.7322    1.0000 </r>
       <r>    2.7349    1.0000 </r>
       <r>    2.7362    1.0000 </r>
       <r>    2.7371    1.0000 </r>
       <r>    2.7411    1.0000 </r>
       <r>    2.9969    1.0000 </r>
       <r>    2.9987    1.0000 </r>
       <r>    3.0016    1.0000 </r>
       <r>    3.0096    1.0000 </r>
       <r>    3.0140    1.0000 </r>
       <r>    3.0175    1.0000 </r>
       <r>    3.3579    1.0000 </r>
       <r>    3.3619    1.0000 </r>
       <r>    3.3656    1.0000 </r>
       <r>    3.3807    1.0000 </r>
       <r>    3.3840    1.0000 </r>
       <r>    3.3887    1.0000 </r>
       <r>    3.4633    1.0000 </r>
       <r>    3.4674    1.0000 </r>
       <r>    3.4692    1.0000 </r>
       <r>    3.7335    1.0000 </r>
       <r>    3.7388    1.0000 </r>
       <r>    3.7412    1.0000 </r>
       <r>    3.7419    1.0000 </r>
       <r>    3.7439    1.0000 </r>
       <r>    3.7482    1.0000 </r>
       <r>    3.7770    1.0000 </r>
       <r>    3.7817    1.0000 </r>
       <r>    3.7836    1.0000 </r>
       <r>    4.0407    1.0000 </r>
       <r>    4.0948    1.0000 </r>
       <r>    4.0977    1.0000 </r>
       <r>    4.1015    1.0000 </r>
       <r>    4.3372    1.0000 </r>
       <r>    4.3415    1.0000 </r>
       <r>    4.3442    1.0000 </r>
       <r>    4.4001    1.0000 </r>
       <r>    4.4058    1.0000 </r>
       <r>    4.4118    1.0000 </r>
       <r>    4.5588    1.0000 </r>
       <r>    4.5670    1.0000 </r>
       <r>    4.8654    1.0000 </r>
       <r>    4.8707    1.0000 </r>
       <r>    4.8741    1.0000 </r>
       <r>    5.3451    1.0000 </r>
       <r>    5.3543    1.0000 </r>
       <r>    6.5603    0.0000 </r>
       <r>    6.5629    0.0000 </r>
       <r>    6.5670    0.0000 </r>
       <r>    7.0011    0.0000 </r>
       <r>    7.0052    0.0000 </r>
       <r>    7.0070    0.0000 </r>
       <r>    7.2337    0.0000 </r>
       <r>    7.4876    0.0000 </r>
       <r>    7.4907    0.0000 </r>
       <r>    7.4939    0.0000 </r>
       <r>    7.6158    0.0000 </r>
       <r>    7.6196    0.0000 </r>
       <r>    7.6232    0.0000 </r>
       <r>    7.7776    0.0000 </r>
       <r>    7.7793    0.0000 </r>
       <r>    7.7825    0.0000 </r>
       <r>    7.7984    0.0000 </r>
       <r>    7.8001    0.0000 </r>
       <r>    7.8050    0.0000 </r>
       <r>    8.0226    0.0000 </r>
       <r>    8.0272    0.0000 </r>
       <r>    8.0299    0.0000 </r>
       <r>    8.0325    0.0000 </r>
       <r>    8.0345    0.0000 </r>
       <r>    8.0362    0.0000 </r>
       <r>    8.0815    0.0000 </r>
       <r>    8.2928    0.0000 </r>
       <r>    8.2951    0.0000 </r>
       <r>    8.2970    0.0000 </r>
       <r>    8.4926    0.0000 </r>
       <r>    8.4991    0.0000 </r>
       <r>    8.5029    0.0000 </r>
       <r>    8.5045    0.0000 </r>
       <r>    8.5088    0.0000 </r>
       <r>    8.5181    0.0000 </r>
       <r>    8.5469    0.0000 </r>
      </set>
      <set comment="kpoint 2">
       <r>   -5.9931    1.0000 </r>
       <r>   -5.4692    1.0000 </r>
       <r>   -5.4632    1.0000 </r>
       <r>   -5.4622    1.0000 </r>
       <r>   -4.9696    1.0000 </r>
       <r>   -4.9639    1.0000 </r>
       <r>   -4.9630    1.0000 </r>
       <r>   -4.5313    1.0000 </r>
       <r>   -4.4363    1.0000 </r>
       <r>   -4.4307    1.0000 </r>
       <r>   -4.4295    1.0000 </r>
       <r>   -4.0295    1.0000 </r>
       <r>   -4.0162    1.0000 </r>
       <r>   -4.0159    1.0000 </r>
       <r>   -4.0151    1.0000 </r>
       <r>   -4.0132    1.0000 </r>
       <r>   -4.0116    1.0000 </r>
       <r>   -3.8292    1.0000 </r>
       <r>   -3.8239    1.0000 </r>
       <r>   -3.8217    1.0000 </r>
       <r>   -3.3298    1.0000 </r>
       <r>   -3.3257    1.0000 </r>
       <r>   -3.3242    1.0000 </r>
       <r>   -2.9652    1.0000 </r>
       <r>   -2.9576    1.0000 </r>
       <r>   -2.9558    1.0000 </r>
       <r>   -2.8017    1.0000 </r>
       <r>   -2.7916    1.0000 </r>
       <r>   -2.7905    1.0000 </r>
       <r>   -2.7893    1.0000 </r>
       <r>   -2.7876    1.0000 </r>
       <r>   -2.7859    1.0000 </r>
       <r>   -1.2569    1.0000 </r>
       <r>   -1.2512    1.0000 </r>
       <r>   -1.2482    1.0000 </r>
       <r>   -1.2464    1.0000 </r>
       <r>   -1.2453    1.0000 </r>
       <r>   -1.2427    1.0000 </r>
       <r>   -1.1559    1.0000 </r>
       <r>   -1.1485    1.0000 </r>
       <r>   -1.1462    1.0000 </r>
       <r>   -1.0343    1.0000 </r>
       <r>   -1.0320    1.0000 </r>
       <r>   -1.0266    1.0000 </r>
       <r>   -0.9591    1.0000 </r>
       <r>   -0.9477    1.0000 </r>
       <r>   -0.9456    1.0000 </r>
       <r>   -0.2481    1.0000 </r>
       <r>   -0.1673    1.0000 </r>
       <r>   -0.1617    1.0000 </r>
       <r>   -0.1597    1.0000 </r>
       <r>   -0.1576    1.0000 </r>
       <r>   -0.1546    1.0000 </r>
       <r>   -0.1513    1.0000 </r>
       <r>    0.7063    1.0000 </r>
       <r>    0.7130    1.0000 </r>
       <r>    0.7166    1.0000 </r>
       <r>    1.0453    1.0000 </r>
       <r>    1.0460    1.0000 </r>
       <r>    1.0500    1.0000 </r>
       <r>    1.6530    1.0000 </r>
       <r>    1.6541    1.0000 </r>
       <r>    1.6559    1.0000 </r>
       <r>    1.6583    1.0000 </r>
       <r>    1.6602    1.0000 </r>
       <r>    1.6606    1.0000 </r>
       <r>    1.7151    1.0000 </r>
       <r>    1.7169    1.0000 </r>
       <r>    1.7196    1.0000 </r>
       <r>    2.2632    1.0000 </r>
       <r>    2.2666    1.0000 </r>
       <r>    2.2678    1.0000 </r>
       <r>    2.3670    1.0000 </r>
       <r>    2.3682    1.0000 </r>
       <r>    2.3710    1.0000 </r>
       <r>    2.3735    1.0000 </r>
       <r>    2.3757    1.0000 </r>
       <r>    2.3771    1.0000 </r>
       <r>    2.4241    1.0000 </r>
       <r>    2.4280    1.0000 </r>
       <r>    2.4295    1.0000 </r>
       <r>    2.7279    1.0000 </r>
       <r>    2.7326    1.0000 </r>
       <r>    2.7350    1.0000 </r>
       <r>    2.7361    1.0000 </r>
       <r>    2.7375    1.0000 </r>
       <r>    2.7394    1.0000 </r>
       <r>    2.9987    1.0000 </r>
       <r>    3.0005    1.0000 </r>
       <r>    3.0014    1.0000 </r>
       <r>    3.0130    1.0000 </r>
       <r>    3.0138    1.0000 </r>
       <r>    3.0178    1.0000 </r>
       <r>    3.3551    1.0000 </r>
       <r>    3.3617    1.0000 </r>
       <r>    3.3631    1.0000 </r>
       <r>    3.3770    1.0000 </r>
       <r>    3.3827    1.0000 </r>
       <r>    3.3846    1.0000 </r>
       <r>    3.4654    1.0000 </r>
       <r>    3.4683    1.0000 </r>
       <r>    3.4695    1.0000 </r>
       <r>    3.7302    1.0000 </r>
       <r>    3.7349    1.0000 </r>
       <r>    3.7387    1.0000 </r>
       <r>    3.7419    1.0000 </r>
       <r>    3.7427    1.0000 </r>
       <r>    3.7436    1.0000 </r>
       <r>    3.7795    1.0000 </r>
       <r>    3.7825    1.0000 </r>
       <r>    3.7841    1.0000 </r>
       <r>    4.0368    1.0000 </r>
       <r>    4.0979    1.0000 </r>
       <r>    4.1007    1.0000 </r>
       <r>    4.1018    1.0000 </r>
       <r>    4.3403    1.0000 </r>
       <r>    4.3434    1.0000 </r>
       <r>    4.3451    1.0000 </r>
       <r>    4.3955    1.0000 </r>
       <r>    4.4032    1.0000 </r>
       <r>    4.4053    1.0000 </r>
       <r>    4.5618    1.0000 </r>
       <r>    4.5664    1.0000 </r>
       <r>    4.8692    1.0000 </r>
       <r>    4.8729    1.0000 </r>
       <r>    4.8759    1.0000 </r>
       <r>    5.3493    1.0000 </r>
       <r>    5.3547    1.0000 </r>
       <r>    6.5618    0.0000 </r>
       <r>    6.5656    0.0000 </r>
       <r>    6.5675    0.0000 </r>
       <r>    7.0019    0.0000 </r>
       <r>    7.0045    0.0000 </r>
       <r>    7.0091    0.0000 </r>
       <r>    7.2351    0.0000 </r>
       <r>    7.4894    0.0000 </r>
       <r>    7.4918    0.0000 </r>
       <r>    7.4956    0.0000 </r>
       <r>    7.6150    0.0000 </r>
       <r>    7.6170    0.0000 </r>
       <r>    7.6228    0.0000 </r>
       <r>    7.7779    0.0000 </r>
       <r>    7.7797    0.0000 </r>
       <r>    7.7826    0.0000 </r>
       <r>    7.7993    0.0000 </r>
       <r>    7.8029    0.0000 </r>
       <r>    7.8041    0.0000 </r>
       <r>    8.0212    0.0000 </r>
       <r>    8.0237    0.0000 </r>
       <r>    8.0301    0.0000 </r>
       <r>    8.0314    0.0000 </r>
       <r>    8.0323    0.0000 </r>
       <r>    8.0343    0.0000 </r>
       <r>    8.0834    0.0000 </r>
       <r>    8.2936    0.0000 </r>
       <r>    8.2940    0.0000 </r>
       <r>    8.2980    0.0000 </r>
       <r>    8.4938    0.0000 </r>
       <r>    8.4990    0.0000 </r>
       <r>    8.5030    0.0000 </r>
       <r>    8.5050    0.0000 </r>
       <r>    8.5084    0.0000 </r>
       <r>    8.5216    0.0000 </r>
       <r>    8.5384    0.0000 </r>
      </set>
      <set comment="kpoint 3">
       <r>   -5.9932    1.0000 </r>
       <r>   -5.4673    1.0000 </r>
       <r>   -5.4662    1.0000 </r>
       <r>   -5.4605    1.0000 </r>
       <r>   -4.9682    1.0000 </r>
       <r>   -4.9672    1.0000 </r>
       <r>   -4.9614    1.0000 </r>
       <r>   -4.5333    1.0000 </r>
       <r>   -4.4354    1.0000 </r>
       <r>   -4.4342    1.0000 </r>
       <r>   -4.4286    1.0000 </r>
       <r>   -4.0219    1.0000 </r>
       <r>   -4.0194    1.0000 </r>
       <r>   -4.0191    1.0000 </r>
       <r>   -4.0162    1.0000 </r>
       <r>   -4.0116    1.0000 </r>
       <r>   -4.0078    1.0000 </r>
       <r>   -3.8270    1.0000 </r>
       <r>   -3.8248    1.0000 </r>
       <r>   -3.8190    1.0000 </r>
       <r>   -3.3342    1.0000 </r>
       <r>   -3.3311    1.0000 </r>
       <r>   -3.3251    1.0000 </r>
       <r>   -2.9623    1.0000 </r>
       <r>   -2.9607    1.0000 </r>
       <r>   -2.9535    1.0000 </r>
       <r>   -2.7967    1.0000 </r>
       <r>   -2.7940    1.0000 </r>
       <r>   -2.7928    1.0000 </r>
       <r>   -2.7908    1.0000 </r>
       <r>   -2.7856    1.0000 </r>
       <r>   -2.7833    1.0000 </r>
       <r>   -1.2561    1.0000 </r>
       <r>   -1.2529    1.0000 </r>
       <r>   -1.2519    1.0000 </r>
       <r>   -1.2486    1.0000 </r>
       <r>   -1.2445    1.0000 </r>
       <r>   -1.2420    1.0000 </r>
       <r>   -1.1559    1.0000 </r>
       <r>   -1.1535    1.0000 </r>
       <r>   -1.1462    1.0000 </r>
       <r>   -1.0385    1.0000 </r>
       <r>   -1.0334    1.0000 </r>
       <r>   -1.0310    1.0000 </r>
       <r>   -0.9477    1.0000 </r>
       <r>   -0.9424    1.0000 </r>
       <r>   -0.9380    1.0000 </r>
       <r>   -0.2411    1.0000 </r>
       <r>   -0.1688    1.0000 </r>
       <r>   -0.1673    1.0000 </r>
       <r>   -0.1631    1.0000 </r>
       <r>   -0.1600    1.0000 </r>
       <r>   -0.1576    1.0000 </r>
       <r>   -0.1523    1.0000 </r>
       <r>    0.7122    1.0000 </r>
       <r>    0.7168    1.0000 </r>
       <r>    0.7207    1.0000 </r>
       <r>    1.0445    1.0000 </r>
       <r>    1.0467    1.0000 </r>
       <r>    1.0500    1.0000 </r>
       <r>    1.6523    1.0000 </r>
       <r>    1.6554    1.0000 </r>
       <r>    1.6563    1.0000 </r>
       <r>    1.6571    1.0000 </r>
       <r>    1.6586    1.0000 </r>
       <r>    1.6612    1.0000 </r>
       <r>    1.7128    1.0000 </r>
       <r>    1.7141    1.0000 </r>
       <r>    1.7181    1.0000 </r>
       <r>    2.2675    1.0000 </r>
       <r>    2.2688    1.0000 </r>
       <r>    2.2723    1.0000 </r>
       <r>    2.3626    1.0000 </r>
       <r>    2.3665    1.0000 </r>
       <r>    2.3695    1.0000 </r>
       <r>    2.3712    1.0000 </r>
       <r>    2.3732    1.0000 </r>
       <r>    2.3745    1.0000 </r>
       <r>    2.4200    1.0000 </r>
       <r>    2.4238    1.0000 </r>
       <r>    2.4250    1.0000 </r>
       <r>    2.7301    1.0000 </r>
       <r>    2.7321    1.0000 </r>
       <r>    2.7335    1.0000 </r>
       <r>    2.7356    1.0000 </r>
       <r>    2.7386    1.0000 </r>
       <r>    2.7407    1.0000 </r>
       <r>    2.9963    1.0000 </r>
       <r>    2.9972    1.0000 </r>
       <r>    2.9999    1.0000 </r>
       <r>    3.0103    1.0000 </r>
       <r>    3.0123    1.0000 </r>
       <r>    3.0153    1.0000 </r>
       <r>    3.3612    1.0000 </r>
       <r>    3.3627    1.0000 </r>
       <r>    3.3672    1.0000 </r>
       <r>    3.3842    1.0000 </r>
       <r>    3.3866    1.0000 </r>
       <r>    3.3917    1.0000 </r>
       <r>    3.4619    1.0000 </r>
       <r>    3.4664    1.0000 </r>
       <r>    3.4683    1.0000 </r>
       <r>    3.7387    1.0000 </r>
       <r>    3.7406    1.0000 </r>
       <r>    3.7414    1.0000 </r>
       <r>    3.7442    1.0000 </r>
       <r>    3.7469    1.0000 </r>
       <r>    3.7513    1.0000 </r>
       <r>    3.7753    1.0000 </r>
       <r>    3.7803    1.0000 </r>
       <r>    3.7829    1.0000 </r>
       <r>    4.0441    1.0000 </r>
       <r>    4.0940    1.0000 </r>
       <r>    4.0951    1.0000 </r>
       <r>    4.0984    1.0000 </r>
       <r>    4.3352    1.0000 </r>
       <r>    4.3402    1.0000 </r>
       <r>    4.3420    1.0000 </r>
       <r>    4.4061    1.0000 </r>
       <r>    4.4104    1.0000 </r>
       <r>    4.4148    1.0000 </r>
       <r>    4.5593    1.0000 </r>
       <r>    4.5641    1.0000 </r>
       <r>    4.8622    1.0000 </r>
       <r>    4.8688    1.0000 </r>
       <r>    4.8713    1.0000 </r>
       <r>    5.3448    1.0000 </r>
       <r>    5.3500    1.0000 </r>
       <r>    6.5591    0.0000 </r>
       <r>    6.5612    0.0000 </r>
       <r>    6.5651    0.0000 </r>
       <r>    6.9996    0.0000 </r>
       <r>    7.0036    0.0000 </r>
       <r>    7.0079    0.0000 </r>
       <r>    7.2323    0.0000 </r>
       <r>    7.4862    0.0000 </r>
       <r>    7.4884    0.0000 </r>
       <r>    7.4929    0.0000 </r>
       <r>    7.6164    0.0000 </r>
       <r>    7.6223    0.0000 </r>
       <r>    7.6241    0.0000 </r>
       <r>    7.7770    0.0000 </r>
       <r>    7.7791    0.0000 </r>
       <r>    7.7820    0.0000 </r>
       <r>    7.7986    0.0000 </r>
       <r>    7.7998    0.0000 </r>
       <r>    7.8032    0.0000 </r>
       <r>    8.0251    0.0000 </r>
       <r>    8.0288    0.0000 </r>
       <r>    8.0312    0.0000 </r>
       <r>    8.0337    0.0000 </r>
       <r>    8.0356    0.0000 </r>
       <r>    8.0389    0.0000 </r>
       <r>    8.0792    0.0000 </r>
       <r>    8.2925    0.0000 </r>
       <r>    8.2944    0.0000 </r>
       <r>    8.2973    0.0000 </r>
       <r>    8.4942    0.0000 </r>
       <r>    8.4990    0.0000 </r>
       <r>    8.5020    0.0000 </r>
       <r>    8.5066    0.0000 </r>
       <r>    8.5091    0.0000 </r>
       <r>    8.5166    0.0000 </r>
       <r>    8.5422    0.0000 </r>
      </set>
      <set comment="kpoint 4">
       <r>   -5.9932    1.0000 </r>
       <r>   -5.4682    1.0000 </r>
       <r>   -5.4651    1.0000 </r>
       <r>   -5.4610    1.0000 </r>
       <r>   -4.9689    1.0000 </r>
       <r>   -4.9659    1.0000 </r>
       <r>   -4.9619    1.0000 </r>
       <r>   -4.5323    1.0000 </r>
       <r>   -4.4357    1.0000 </r>
       <r>   -4.4328    1.0000 </r>
       <r>   -4.4287    1.0000 </r>
       <r>   -4.0251    1.0000 </r>
       <r>   -4.0185    1.0000 </r>
       <r>   -4.0169    1.0000 </r>
       <r>   -4.0152    1.0000 </r>
       <r>   -4.0142    1.0000 </r>
       <r>   -4.0089    1.0000 </r>
       <r>   -3.8282    1.0000 </r>
       <r>   -3.8244    1.0000 </r>
       <r>   -3.8202    1.0000 </r>
       <r>   -3.3312    1.0000 </r>
       <r>   -3.3288    1.0000 </r>
       <r>   -3.3250    1.0000 </r>
       <r>   -2.9628    1.0000 </r>
       <r>   -2.9590    1.0000 </r>
       <r>   -2.9558    1.0000 </r>
       <r>   -2.7997    1.0000 </r>
       <r>   -2.7933    1.0000 </r>
       <r>   -2.7914    1.0000 </r>
       <r>   -2.7896    1.0000 </r>
       <r>   -2.7879    1.0000 </r>
       <r>   -2.7831    1.0000 </r>
       <r>   -1.2587    1.0000 </r>
       <r>   -1.2519    1.0000 </r>
       <r>   -1.2491    1.0000 </r>
       <r>   -1.2477    1.0000 </r>
       <r>   -1.2454    1.0000 </r>
       <r>   -1.2406    1.0000 </r>
       <r>   -1.1545    1.0000 </r>
       <r>   -1.1510    1.0000 </r>
       <r>   -1.1475    1.0000 </r>
       <r>   -1.0374    1.0000 </r>
       <r>   -1.0327    1.0000 </r>
       <r>   -1.0279    1.0000 </r>
       <r>   -0.9526    1.0000 </r>
       <r>   -0.9459    1.0000 </r>
       <r>   -0.9417    1.0000 </r>
       <r>   -0.2447    1.0000 </r>
       <r>   -0.1691    1.0000 </r>
       <r>   -0.1631    1.0000 </r>
       <r>   -0.1608    1.0000 </r>
       <r>   -0.1595    1.0000 </r>
       <r>   -0.1565    1.0000 </r>
       <r>   -0.1516    1.0000 </r>
       <r>    0.7101    1.0000 </r>
       <r>    0.7146    1.0000 </r>
       <r>    0.7181    1.0000 </r>
       <r>    1.0434    1.0000 </r>
       <r>    1.0472    1.0000 </r>
       <r>    1.0508    1.0000 </r>
       <r>    1.6522    1.0000 </r>
       <r>    1.6537    1.0000 </r>
       <r>    1.6573    1.0000 </r>
       <r>    1.6577    1.0000 </r>
       <r>    1.6590    1.0000 </r>
       <r>    1.6618    1.0000 </r>
       <r>    1.7134    1.0000 </r>
       <r>    1.7163    1.0000 </r>
       <r>    1.7186    1.0000 </r>
       <r>    2.2656    1.0000 </r>
       <r>    2.2675    1.0000 </r>
       <r>    2.2700    1.0000 </r>
       <r>    2.3646    1.0000 </r>
       <r>    2.3672    1.0000 </r>
       <r>    2.3708    1.0000 </r>
       <r>    2.3716    1.0000 </r>
       <r>    2.3740    1.0000 </r>
       <r>    2.3767    1.0000 </r>
       <r>    2.4215    1.0000 </r>
       <r>    2.4245    1.0000 </r>
       <r>    2.4292    1.0000 </r>
       <r>    2.7288    1.0000 </r>
       <r>    2.7330    1.0000 </r>
       <r>    2.7342    1.0000 </r>
       <r>    2.7352    1.0000 </r>
       <r>    2.7362    1.0000 </r>
       <r>    2.7421    1.0000 </r>
       <r>    2.9964    1.0000 </r>
       <r>    3.0000    1.0000 </r>
       <r>    3.0010    1.0000 </r>
       <r>    3.0098    1.0000 </r>
       <r>    3.0138    1.0000 </r>
       <r>    3.0173    1.0000 </r>
       <r>    3.3579    1.0000 </r>
       <r>    3.3621    1.0000 </r>
       <r>    3.3652    1.0000 </r>
       <r>    3.3810    1.0000 </r>
       <r>    3.3850    1.0000 </r>
       <r>    3.3878    1.0000 </r>
       <r>    3.4632    1.0000 </r>
       <r>    3.4668    1.0000 </r>
       <r>    3.4698    1.0000 </r>
       <r>    3.7332    1.0000 </r>
       <r>    3.7396    1.0000 </r>
       <r>    3.7408    1.0000 </r>
       <r>    3.7420    1.0000 </r>
       <r>    3.7438    1.0000 </r>
       <r>    3.7482    1.0000 </r>
       <r>    3.7772    1.0000 </r>
       <r>    3.7809    1.0000 </r>
       <r>    3.7844    1.0000 </r>
       <r>    4.0404    1.0000 </r>
       <r>    4.0946    1.0000 </r>
       <r>    4.0985    1.0000 </r>
       <r>    4.1009    1.0000 </r>
       <r>    4.3371    1.0000 </r>
       <r>    4.3412    1.0000 </r>
       <r>    4.3446    1.0000 </r>
       <r>    4.4021    1.0000 </r>
       <r>    4.4060    1.0000 </r>
       <r>    4.4095    1.0000 </r>
       <r>    4.5588    1.0000 </r>
       <r>    4.5670    1.0000 </r>
       <r>    4.8650    1.0000 </r>
       <r>    4.8703    1.0000 </r>
       <r>    4.8749    1.0000 </r>
       <r>    5.3451    1.0000 </r>
       <r>    5.3543    1.0000 </r>
       <r>    6.5597    0.0000 </r>
       <r>    6.5638    0.0000 </r>
       <r>    6.5666    0.0000 </r>
       <r>    6.9989    0.0000 </r>
       <r>    7.0056    0.0000 </r>
       <r>    7.0088    0.0000 </r>
       <r>    7.2337    0.0000 </r>
       <r>    7.4859    0.0000 </r>
       <r>    7.4918    0.0000 </r>
       <r>    7.4944    0.0000 </r>
       <r>    7.6158    0.0000 </r>
       <r>    7.6197    0.0000 </r>
       <r>    7.6234    0.0000 </r>
       <r>    7.7765    0.0000 </r>
       <r>    7.7804    0.0000 </r>
       <r>    7.7819    0.0000 </r>
       <r>    7.7976    0.0000 </r>
       <r>    7.8023    0.0000 </r>
       <r>    7.8044    0.0000 </r>
       <r>    8.0231    0.0000 </r>
       <r>    8.0275    0.0000 </r>
       <r>    8.0308    0.0000 </r>
       <r>    8.0312    0.0000 </r>
       <r>    8.0330    0.0000 </r>
       <r>    8.0377    0.0000 </r>
       <r>    8.0814    0.0000 </r>
       <r>    8.2913    0.0000 </r>
       <r>    8.2955    0.0000 </r>
       <r>    8.2981    0.0000 </r>
       <r>    8.4938    0.0000 </r>
       <r>    8.5008    0.0000 </r>
       <r>    8.5018    0.0000 </r>
       <r>    8.5050    0.0000 </r>
       <r>    8.5082    0.0000 </r>
       <r>    8.5132    0.0000 </r>
       <r>    8.5389    0.0000 </r>
      </set>
     </set>
    </set>
   </array>
  </eigenvalues>
  <separator name="orbital magnetization" >
   <v name="MAGDIPOLOUT">      0.00000000      0.00000000      0.00000000</v>
  </separator>
  <dos>
   <i name="efermi">      5.59854819 </i>
   <total>
    <array>
     <dimension dim="1">gridpoints</dimension>
     <dimension dim="2">spin</dimension>
     <field>energy</field>
     <field>total</field>
     <field>integrated</field>
     <set>
      <set comment="spin 1">
       <r>    -6.7202     0.0000     0.0000 </r>
       <r>    -6.6669     0.0000     0.0000 </r>
       <r>    -6.6136     0.0000     0.0000 </r>
       <r>    -6.5603     0.0000     0.0000 </r>
       <r>    -6.5070     0.0000     0.0000 </r>
       <r>    -6.4537     0.0000     0.0000 </r>
       <r>    -6.4004     0.0000     0.0000 </r>
       <r>    -6.3470     0.0000     0.0000 </r>
       <r>    -6.2937     0.0000     0.0000 </r>
       <r>    -6.2404     0.0000     0.0000 </r>
       <r>    -6.1871     0.0000     0.0000 </r>
       <r>    -6.1338     0.0013     0.0001 </r>
       <r>    -6.0805     0.2526     0.0135 </r>
       <r>    -6.0272     6.0547     0.3363 </r>
       <r>    -5.9739    20.2377     1.4153 </r>
       <r>    -5.9205    10.2185     1.9601 </r>
       <r>    -5.8672     0.7421     1.9996 </r>
       <r>    -5.8139     0.0069     2.0000 </r>
       <r>    -5.7606     0.0000     2.0000 </r>
       <r>    -5.7073     0.0000     2.0000 </r>
       <r>    -5.6540     0.0000     2.0000 </r>
       <r>    -5.6007     0.0072     2.0004 </r>
       <r>    -5.5473     1.1163     2.0599 </r>
       <r>    -5.4940    21.9294     3.2290 </r>
       <r>    -5.4407    61.4797     6.5067 </r>
       <r>    -5.3874    26.3648     7.9124 </r>
       <r>    -5.3341     1.6310     7.9993 </r>
       <r>    -5.2808     0.0129     8.0000 </r>
       <r>    -5.2275     0.0000     8.0000 </r>
       <r>    -5.1741     0.0000     8.0000 </r>
       <r>    -5.1208     0.0007     8.0000 </r>
       <r>    -5.0675     0.2270     8.0121 </r>
       <r>    -5.0142     9.3442     8.5103 </r>
       <r>    -4.9609    52.5533    11.3121 </r>
       <r>    -4.9076    44.6552    13.6929 </r>
       <r>    -4.8543     5.6648    13.9949 </r>
       <r>    -4.8010     0.0961    14.0000 </r>
       <r>    -4.7476     0.0002    14.0000 </r>
       <r>    -4.6943     0.0001    14.0000 </r>
       <r>    -4.6410     0.0395    14.0021 </r>
       <r>    -4.5877     2.1601    14.1173 </r>
       <r>    -4.5344    15.9054    14.9653 </r>
       <r>    -4.4811    26.2364    16.3640 </r>
       <r>    -4.4278    55.2927    19.3119 </r>
       <r>    -4.3744    44.6744    21.6936 </r>
       <r>    -4.3211     5.6507    21.9949 </r>
       <r>    -4.2678     0.0957    22.0000 </r>
       <r>    -4.2145     0.0002    22.0000 </r>
       <r>    -4.1612     0.0059    22.0003 </r>
       <r>    -4.1079     1.1851    22.0635 </r>
       <r>    -4.0546    31.0358    23.7181 </r>
       <r>    -4.0012   117.3824    29.9762 </r>
       <r>    -3.9479    69.3007    33.6709 </r>
       <r>    -3.8946     8.7794    34.1390 </r>
       <r>    -3.8413    32.9391    35.8951 </r>
       <r>    -3.7880    59.7358    39.0798 </r>
       <r>    -3.7347    16.6066    39.9651 </r>
       <r>    -3.6814     0.6505    39.9998 </r>
       <r>    -3.6281     0.0032    40.0000 </r>
       <r>    -3.5747     0.0000    40.0000 </r>
       <r>    -3.5214     0.0000    40.0000 </r>
       <r>    -3.4681     0.0047    40.0002 </r>
       <r>    -3.4148     0.8358    40.0448 </r>
       <r>    -3.3615    18.8973    41.0523 </r>
       <r>    -3.3082    60.7209    44.2895 </r>
       <r>    -3.2549    29.9137    45.8844 </r>
       <r>    -3.2015     2.1490    45.9989 </r>
       <r>    -3.1482     0.0200    46.0000 </r>
       <r>    -3.0949     0.0075    46.0004 </r>
       <r>    -3.0416     1.1368    46.0610 </r>
       <r>    -2.9883    22.0737    47.2378 </r>
       <r>    -2.9350    61.4438    50.5136 </r>
       <r>    -2.8817    27.4769    51.9785 </r>
       <r>    -2.8283    33.3696    53.7576 </r>
       <r>    -2.7750   117.9904    60.0481 </r>
       <r>    -2.7217    68.1752    63.6828 </r>
       <r>    -2.6684     5.8829    63.9964 </r>
       <r>    -2.6151     0.0676    64.0000 </r>
       <r>    -2.5618     0.0001    64.0000 </r>
       <r>    -2.5085     0.0000    64.0000 </r>
       <r>    -2.4551     0.0000    64.0000 </r>
       <r>    -2.4018     0.0000    64.0000 </r>
       <r>    -2.3485     0.0000    64.0000 </r>
       <r>    -2.2952     0.0000    64.0000 </r>
       <r>    -2.2419     0.0000    64.0000 </r>
       <r>    -2.1886     0.0000    64.0000 </r>
       <r>    -2.1353     0.0000    64.0000 </r>
       <r>    -2.0820     0.0000    64.0000 </r>
       <r>    -2.0286     0.0000    64.0000 </r>
       <r>    -1.9753     0.0000    64.0000 </r>
       <r>    -1.9220     0.0000    64.0000 </r>
       <r>    -1.8687     0.0000    64.0000 </r>
       <r>    -1.8154     0.0000    64.0000 </r>
       <r>    -1.7621     0.0000    64.0000 </r>
       <r>    -1.7088     0.0000    64.0000 </r>
       <r>    -1.6554     0.0000    64.0000 </r>
       <r>    -1.6021     0.0000    64.0000 </r>
       <r>    -1.5488     0.0000    64.0000 </r>
       <r>    -1.4955     0.0000    64.0000 </r>
       <r>    -1.4422     0.0000    64.0000 </r>
       <r>    -1.3889     0.0100    64.0005 </r>
       <r>    -1.3356     1.7021    64.0913 </r>
       <r>    -1.2822    37.6936    66.1009 </r>
       <r>    -1.2289   122.4083    72.6269 </r>
       <r>    -1.1756    86.2906    77.2274 </r>
       <r>    -1.1223    66.5775    80.7769 </r>
       <r>    -1.0690    39.0615    82.8594 </r>
       <r>    -1.0157    63.8559    86.2638 </r>
       <r>    -0.9624    67.1265    89.8425 </r>
       <r>    -0.9091    61.4553    93.1189 </r>
       <r>    -0.8557    15.9042    93.9668 </r>
       <r>    -0.8024     0.6189    93.9998 </r>
       <r>    -0.7491     0.0031    94.0000 </r>
       <r>    -0.6958     0.0000    94.0000 </r>
       <r>    -0.6425     0.0000    94.0000 </r>
       <r>    -0.5892     0.0000    94.0000 </r>
       <r>    -0.5359     0.0000    94.0000 </r>
       <r>    -0.4825     0.0000    94.0000 </r>
       <r>    -0.4292     0.0000    94.0000 </r>
       <r>    -0.3759     0.0040    94.0002 </r>
       <r>    -0.3226     0.5175    94.0278 </r>
       <r>    -0.2693     8.8547    94.4999 </r>
       <r>    -0.2160    33.5990    96.2912 </r>
       <r>    -0.1627   100.2985   101.6384 </r>
       <r>    -0.1093   101.7881   107.0651 </r>
       <r>    -0.0560    17.1291   107.9784 </r>
       <r>    -0.0027     0.4047   107.9999 </r>
       <r>     0.0506     0.0012   108.0000 </r>
       <r>     0.1039     0.0000   108.0000 </r>
       <r>     0.1572     0.0000   108.0000 </r>
       <r>     0.2105     0.0000   108.0000 </r>
       <r>     0.2638     0.0000   108.0000 </r>
       <r>     0.3172     0.0000   108.0000 </r>
       <r>     0.3705     0.0000   108.0000 </r>
       <r>     0.4238     0.0000   108.0000 </r>
       <r>     0.4771     0.0000   108.0000 </r>
       <r>     0.5304     0.0000   108.0000 </r>
       <r>     0.5837     0.0139   108.0007 </r>
       <r>     0.6370     1.6811   108.0904 </r>
       <r>     0.6904    26.5422   109.5054 </r>
       <r>     0.7437    61.2844   112.7727 </r>
       <r>     0.7970    21.8846   113.9395 </r>
       <r>     0.8503     1.1277   113.9996 </r>
       <r>     0.9036     0.0104   114.0002 </r>
       <r>     0.9569     0.6167   114.0330 </r>
       <r>     1.0102    16.1969   114.8966 </r>
       <r>     1.0636    59.5821   118.0731 </r>
       <r>     1.1169    33.3808   119.8527 </r>
       <r>     1.1702     2.7328   119.9984 </r>
       <r>     1.2235     0.0291   120.0000 </r>
       <r>     1.2768     0.0000   120.0000 </r>
       <r>     1.3301     0.0000   120.0000 </r>
       <r>     1.3834     0.0000   120.0000 </r>
       <r>     1.4367     0.0000   120.0000 </r>
       <r>     1.4901     0.0003   120.0000 </r>
       <r>     1.5434     0.1542   120.0082 </r>
       <r>     1.5967     9.9661   120.5396 </r>
       <r>     1.6500    88.5018   125.2579 </r>
       <r>     1.7033   145.3661   133.0079 </r>
       <r>     1.7566    78.8579   137.2121 </r>
       <r>     1.8099    14.3215   137.9757 </r>
       <r>     1.8633     0.4547   137.9999 </r>
       <r>     1.9166     0.0018   138.0000 </r>
       <r>     1.9699     0.0000   138.0000 </r>
       <r>     2.0232     0.0000   138.0000 </r>
       <r>     2.0765     0.0000   138.0000 </r>
       <r>     2.1298     0.0056   138.0003 </r>
       <r>     2.1831     0.9511   138.0510 </r>
       <r>     2.2365    20.3215   139.1344 </r>
       <r>     2.2898    63.8199   142.5369 </r>
       <r>     2.3431    75.7910   146.5776 </r>
       <r>     2.3964   147.1481   154.4226 </r>
       <r>     2.4497   111.7061   160.3781 </r>
       <r>     2.5030    28.8235   161.9148 </r>
       <r>     2.5563     1.5869   161.9994 </r>
       <r>     2.6096     0.0601   162.0026 </r>
       <r>     2.6630     4.7913   162.2580 </r>
       <r>     2.7163    62.6646   165.5989 </r>
       <r>     2.7696   120.4569   172.0209 </r>
       <r>     2.8229    35.6168   173.9197 </r>
       <r>     2.8762     1.5326   174.0015 </r>
       <r>     2.9295     3.7537   174.2016 </r>
       <r>     2.9828    54.2523   177.0940 </r>
       <r>     3.0362   120.8389   183.5363 </r>
       <r>     3.0895    43.7749   185.8701 </r>
       <r>     3.1428     2.4177   185.9990 </r>
       <r>     3.1961     0.0183   186.0000 </r>
       <r>     3.2494     0.0955   186.0051 </r>
       <r>     3.3027     6.5282   186.3531 </r>
       <r>     3.3560    66.3194   189.8889 </r>
       <r>     3.4094   120.6764   196.3226 </r>
       <r>     3.4627    80.9011   200.6357 </r>
       <r>     3.5160    53.8715   203.5078 </r>
       <r>     3.5693     9.0199   203.9887 </r>
       <r>     3.6226     0.3122   204.0053 </r>
       <r>     3.6759     7.6406   204.4127 </r>
       <r>     3.7292    83.3509   208.8564 </r>
       <r>     3.7826   164.6713   217.6357 </r>
       <r>     3.8359    74.1793   221.5904 </r>
       <r>     3.8892     7.5526   221.9931 </r>
       <r>     3.9425     0.2371   222.0057 </r>
       <r>     3.9958     4.0093   222.2195 </r>
       <r>     4.0491    27.7169   223.6972 </r>
       <r>     4.1024    66.0611   227.2191 </r>
       <r>     4.1557    46.3258   229.6889 </r>
       <r>     4.2091     5.7485   229.9954 </r>
       <r>     4.2624     1.5928   230.0803 </r>
       <r>     4.3157    25.9072   231.4615 </r>
       <r>     4.3690    77.9020   235.6148 </r>
       <r>     4.4223    82.1959   239.9969 </r>
       <r>     4.4756    35.2253   241.8749 </r>
       <r>     4.5289    15.0315   242.6763 </r>
       <r>     4.5823    40.3610   244.8281 </r>
       <r>     4.6356    20.4508   245.9184 </r>
       <r>     4.6889     1.5157   245.9992 </r>
       <r>     4.7422     0.0330   246.0010 </r>
       <r>     4.7955     2.0172   246.1085 </r>
       <r>     4.8488    28.9383   247.6513 </r>
       <r>     4.9021    60.8877   250.8975 </r>
       <r>     4.9555    19.7570   251.9508 </r>
       <r>     5.0088     0.9174   251.9997 </r>
       <r>     5.0621     0.0054   252.0000 </r>
       <r>     5.1154     0.0000   252.0000 </r>
       <r>     5.1687     0.0000   252.0000 </r>
       <r>     5.2220     0.0125   252.0007 </r>
       <r>     5.2753     1.3625   252.0733 </r>
       <r>     5.3286    19.4117   253.1082 </r>
       <r>     5.3820    40.5558   255.2704 </r>
       <r>     5.4353    13.0772   255.9676 </r>
       <r>     5.4886     0.6044   255.9998 </r>
       <r>     5.5419     0.0036   256.0000 </r>
       <r>     5.5952     0.0000   256.0000 </r>
       <r>     5.6485     0.0000   256.0000 </r>
       <r>     5.7018     0.0000   256.0000 </r>
       <r>     5.7552     0.0000   256.0000 </r>
       <r>     5.8085     0.0000   256.0000 </r>
       <r>     5.8618     0.0000   256.0000 </r>
       <r>     5.9151     0.0000   256.0000 </r>
       <r>     5.9684     0.0000   256.0000 </r>
       <r>     6.0217     0.0000   256.0000 </r>
       <r>     6.0750     0.0000   256.0000 </r>
       <r>     6.1284     0.0000   256.0000 </r>
       <r>     6.1817     0.0000   256.0000 </r>
       <r>     6.2350     0.0000   256.0000 </r>
       <r>     6.2883     0.0000   256.0000 </r>
       <r>     6.3416     0.0000   256.0000 </r>
       <r>     6.3949     0.0001   256.0000 </r>
       <r>     6.4482     0.0656   256.0035 </r>
       <r>     6.5015     4.5060   256.2437 </r>
       <r>     6.5549    41.0087   258.4301 </r>
       <r>     6.6082    55.3301   261.3799 </r>
       <r>     6.6615    11.3114   261.9830 </r>
       <r>     6.7148     0.3184   261.9999 </r>
       <r>     6.7681     0.0011   262.0000 </r>
       <r>     6.8214     0.0000   262.0000 </r>
       <r>     6.8747     0.0146   262.0008 </r>
       <r>     6.9281     1.7589   262.0946 </r>
       <r>     6.9814    27.2703   263.5484 </r>
       <r>     7.0347    61.3139   266.8173 </r>
       <r>     7.0880    21.1377   267.9442 </r>
       <r>     7.1413     1.2081   268.0086 </r>
       <r>     7.1946     4.8855   268.2691 </r>
       <r>     7.2479    19.5703   269.3125 </r>
       <r>     7.3013    11.8420   269.9438 </r>
       <r>     7.3546     1.0491   269.9997 </r>
       <r>     7.4079     1.1079   270.0588 </r>
       <r>     7.4612    21.7201   271.2168 </r>
       <r>     7.5145    61.6143   274.5017 </r>
       <r>     7.5678    34.5875   276.3457 </r>
       <r>     7.6211    51.7492   279.1046 </r>
       <r>     7.6744    47.6153   281.6431 </r>
       <r>     7.7278    16.7168   282.5344 </r>
       <r>     7.7811    79.9450   286.7965 </r>
       <r>     7.8344   108.4810   292.5801 </r>
       <r>     7.8877    25.6791   293.9491 </r>
       <r>     7.9410     2.3165   294.0726 </r>
       <r>     7.9943    33.8427   295.8769 </r>
       <r>     8.0476   125.2544   302.5547 </r>
       <r>     8.1010    85.8394   307.1311 </r>
       <r>     8.1543    15.5061   307.9578 </r>
       <r>     8.2076     1.5515   308.0405 </r>
       <r>     8.2609    18.1476   309.0080 </r>
       <r>     8.3142    60.5979   312.2387 </r>
       <r>     8.3675    30.7719   313.8793 </r>
       <r>     8.4208     4.5711   314.1230 </r>
       <r>     8.4742    44.0284   316.4703 </r>
       <r>     8.5275   132.7164   323.5459 </r>
       <r>     8.5808    74.5524   327.5205 </r>
       <r>     8.6341     8.7820   327.9887 </r>
       <r>     8.6874     0.2106   328.0000 </r>
       <r>     8.7407     0.0008   328.0000 </r>
       <r>     8.7940     0.0000   328.0000 </r>
       <r>     8.8474     0.0000   328.0000 </r>
       <r>     8.9007     0.0000   328.0000 </r>
       <r>     8.9540     0.0000   328.0000 </r>
       <r>     9.0073     0.0000   328.0000 </r>
       <r>     9.0606     0.0000   328.0000 </r>
       <r>     9.1139     0.0000   328.0000 </r>
       <r>     9.1672     0.0000   328.0000 </r>
       <r>     9.2205     0.0000   328.0000 </r>
       <r>     9.2739     0.0000   328.0000 </r>
      </set>
     </set>
    </array>
   </total>
  </dos>
 </calculation>
 <structure name="finalpos" >
  <crystal>
   <varray name="basis" >
    <v>      10.93252578       0.00000000       0.00000000 </v>
    <v>       0.00000000      10.93252578       0.00000000 </v>
    <v>       0.00000000       0.00000000      10.93252578 </v>
   </varray>
   <i name="volume">   1306.65679237 </i>
   <varray name="rec_basis" >
    <v>       0.09147017       0.00000000       0.00000000 </v>
    <v>       0.00000000       0.09147017       0.00000000 </v>
    <v>       0.00000000       0.00000000       0.09147017 </v>
   </varray>
  </crystal>
  <varray name="positions" >
   <v>       0.44024411       0.43750000       0.43750000 </v>
   <v>       0.93750000       0.43750000       0.43750000 </v>
   <v>       0.43750000       0.93750000       0.43750000 </v>
   <v>       0.93750000       0.93750000       0.43750000 </v>
   <v>       0.43750000       0.43750000       0.93750000 </v>
   <v>       0.93750000       0.43750000       0.93750000 </v>
   <v>       0.43750000       0.93750000       0.93750000 </v>
   <v>       0.93750000       0.93750000       0.93750000 </v>
   <v>       0.43750000       0.18750000       0.18750000 </v>
   <v>       0.93750000       0.18750000       0.18750000 </v>
   <v>       0.43750000       0.68750000       0.18750000 </v>
   <v>       0.93750000       0.68750000       0.18750000 </v>
   <v>       0.43750000       0.18750000       0.68750000 </v>
   <v>       0.93750000       0.18750000       0.68750000 </v>
   <v>       0.43750000       0.68750000       0.68750000 </v>
   <v>       0.93750000       0.68750000       0.68750000 </v>
   <v>       0.18750000       0.43750000       0.18750000 </v>
   <v>       0.68750000       0.43475589       0.18750000 </v>
   <v>       0.18750000       0.93750000       0.18750000 </v>
   <v>       0.68750000       0.93750000       0.18750000 </v>
   <v>       0.18750000       0.43750000       0.68750000 </v>
   <v>       0.68750000       0.43750000       0.68750000 </v>
   <v>       0.18750000       0.93750000       0.68750000 </v>
   <v>       0.68750000       0.93750000       0.68750000 </v>
   <v>       0.18750000       0.18750000       0.43750000 </v>
   <v>       0.68750000       0.18750000       0.43750000 </v>
   <v>       0.18750000       0.68750000       0.43750000 </v>
   <v>       0.68750000       0.68750000       0.43750000 </v>
   <v>       0.18750000       0.18750000       0.93750000 </v>
   <v>       0.68750000       0.18750000       0.93750000 </v>
   <v>       0.18750000       0.68750000       0.93750000 </v>
   <v>       0.68750000       0.68750000       0.93750000 </v>
   <v>       0.06250000       0.06250000       0.06250000 </v>
   <v>       0.56250000       0.06250000       0.06250000 </v>
   <v>       0.06250000       0.56250000       0.06250000 </v>
   <v>       0.56250000       0.56250000       0.06250000 </v>
   <v>       0.06250000       0.06250000       0.56250000 </v>
   <v>       0.56250000       0.06250000       0.56250000 </v>
   <v>       0.06250000       0.56250000       0.56250000 </v>
   <v>       0.56250000       0.56250000       0.56250000 </v>
   <v>       0.06250000       0.31250000       0.31250000 </v>
   <v>       0.56250000       0.31250000       0.31250000 </v>
   <v>       0.06250000       0.81250000       0.31250000 </v>
   <v>       0.56250000       0.81250000       0.31250000 </v>
   <v>       0.06250000       0.31250000       0.81250000 </v>
   <v>       0.56250000       0.31250000       0.81250000 </v>
   <v>       0.06250000       0.81250000       0.81250000 </v>
   <v>       0.56250000       0.81250000       0.81250000 </v>
   <v>       0.31250000       0.06250000       0.31250000 </v>
   <v>       0.81250000       0.06250000       0.31250000 </v>
   <v>       0.31250000       0.56250000       0.31250000 </v>
   <v>       0.81250000       0.56250000       0.31250000 </v>
   <v>       0.31250000       0.06250000       0.81250000 </v>
   <v>       0.81250000       0.06250000       0.81250000 </v>
   <v>       0.31250000       0.56250000       0.81250000 </v>
   <v>       0.81250000       0.56250000       0.81250000 </v>
   <v>       0.31250000       0.31250000       0.06250000 </v>
   <v>       0.81250000       0.31250000       0.06250000 </v>
   <v>       0.31250000       0.81250000       0.06250000 </v>
   <v>       0.81250000       0.81250000       0.06250000 </v>
   <v>       0.31250000       0.31250000       0.56250000 </v>
   <v>       0.81250000       0.31250000       0.56250000 </v>
   <v>       0.31250000       0.81250000       0.56250000 </v>
   <v>       0.81250000       0.81250000       0.56250000 </v>
  </varray>
 </structure>
</modeling>
