
     Program PWSCF v.5.3.0 (svn rev. 11974) starts on  3Feb2016 at 13:34:11 

     This program is part of the open-source Quantum ESPRESSO suite
     for quantum simulation of materials; please cite
         "P. Giannozzi et al., J. Phys.:Condens. Matter 21 395502 (2009);
          URL http://www.quantum-espresso.org", 
     in publications or presentations arising from this work. More details at
     http://www.quantum-espresso.org/quote

     Parallel version (MPI), running on    16 processors
     R & G space division:  proc/nbgrp/npool/nimage =      16
     Reading input from Si.in

     Current dimensions of program PWSCF are:
     Max number of different atomic species (ntypx) = 10
     Max number of k-points (npk) =  40000
     Max angular momentum in pseudopotentials (lmaxx) =  3
               file Si.pbe-n-kjpaw_psl.0.1.UPF: wavefunction(s)  3S renormalized

     Subspace diagonalization in iterative solution of the eigenvalue problem:
     one sub-group per k-point group (pool) will be used
     scalapack distributed-memory algorithm (size of sub-group:  2*  2 procs)

 
     Parallelization info
     --------------------
     sticks:   dense  smooth     PW     G-vecs:    dense   smooth      PW
     Min         424     424    109                26332    26332    3467
     Max         425     425    110                26336    26336    3472
     Sum        6785    6785   1757               421349   421349   55515
 


     bravais-lattice index     =            0
     lattice parameter (alat)  =      20.6591  a.u.
     unit-cell volume          =    8817.2783 (a.u.)^3
     number of atoms/cell      =           64
     number of atomic types    =            1
     number of electrons       =       256.00
     number of Kohn-Sham states=          154
     kinetic-energy cutoff     =      50.0000  Ry
     charge density cutoff     =     200.0000  Ry
     convergence threshold     =      1.0E-09
     mixing beta               =       0.7000
     number of iterations used =            8  plain     mixing
     Exchange-correlation      =  SLA  PW   PBX  PBC ( 1  4  3  4 0 0)

     celldm(1)=  20.659106  celldm(2)=   0.000000  celldm(3)=   0.000000
     celldm(4)=   0.000000  celldm(5)=   0.000000  celldm(6)=   0.000000

     crystal axes: (cart. coord. in units of alat)
               a(1) = (   1.000000   0.000000   0.000000 )  
               a(2) = (   0.000000   1.000000   0.000000 )  
               a(3) = (   0.000000   0.000000   1.000000 )  

     reciprocal axes: (cart. coord. in units 2 pi/alat)
               b(1) = (  1.000000  0.000000  0.000000 )  
               b(2) = (  0.000000  1.000000  0.000000 )  
               b(3) = (  0.000000  0.000000  1.000000 )  


     PseudoPot. # 1 for Si read from file:
     /home/togo/espresso/pseudo/Si.pbe-n-kjpaw_psl.0.1.UPF
     MD5 check sum: b9d333a40e496bef61db012f150758bf
     Pseudo is Projector augmented-wave + core cor, Zval =  4.0
     Generated using "atomic" code by A. Dal Corso  v.5.0.2 svn rev. 9415
     Shape of augmentation charge: PSQ
     Using radial grid of 1141 points,  4 beta functions with: 
                l(1) =   0
                l(2) =   0
                l(3) =   1
                l(4) =   1
     Q(r) pseudized with 0 coefficients 


     atomic species   valence    mass     pseudopotential
        Si             4.00    28.08550     Si( 1.00)

      2 Sym. Ops. (no inversion) found ( 1 have fractional translation)



   Cartesian axes

     site n.     atom                  positions (alat units)
         1           Si  tau(   1) = (   0.4404043   0.4375000   0.4375000  )
         2           Si  tau(   2) = (   0.9375000   0.4375000   0.4375000  )
         3           Si  tau(   3) = (   0.4375000   0.9375000   0.4375000  )
         4           Si  tau(   4) = (   0.9375000   0.9375000   0.4375000  )
         5           Si  tau(   5) = (   0.4375000   0.4375000   0.9375000  )
         6           Si  tau(   6) = (   0.9375000   0.4375000   0.9375000  )
         7           Si  tau(   7) = (   0.4375000   0.9375000   0.9375000  )
         8           Si  tau(   8) = (   0.9375000   0.9375000   0.9375000  )
         9           Si  tau(   9) = (   0.4375000   0.1875000   0.1875000  )
        10           Si  tau(  10) = (   0.9375000   0.1875000   0.1875000  )
        11           Si  tau(  11) = (   0.4345957   0.6875000   0.1875000  )
        12           Si  tau(  12) = (   0.9375000   0.6875000   0.1875000  )
        13           Si  tau(  13) = (   0.4375000   0.1875000   0.6875000  )
        14           Si  tau(  14) = (   0.9375000   0.1875000   0.6875000  )
        15           Si  tau(  15) = (   0.4375000   0.6875000   0.6875000  )
        16           Si  tau(  16) = (   0.9375000   0.6875000   0.6875000  )
        17           Si  tau(  17) = (   0.1875000   0.4375000   0.1875000  )
        18           Si  tau(  18) = (   0.6875000   0.4375000   0.1875000  )
        19           Si  tau(  19) = (   0.1875000   0.9375000   0.1875000  )
        20           Si  tau(  20) = (   0.6875000   0.9375000   0.1875000  )
        21           Si  tau(  21) = (   0.1875000   0.4375000   0.6875000  )
        22           Si  tau(  22) = (   0.6875000   0.4375000   0.6875000  )
        23           Si  tau(  23) = (   0.1875000   0.9375000   0.6875000  )
        24           Si  tau(  24) = (   0.6875000   0.9375000   0.6875000  )
        25           Si  tau(  25) = (   0.1875000   0.1875000   0.4375000  )
        26           Si  tau(  26) = (   0.6875000   0.1875000   0.4375000  )
        27           Si  tau(  27) = (   0.1875000   0.6875000   0.4375000  )
        28           Si  tau(  28) = (   0.6875000   0.6875000   0.4375000  )
        29           Si  tau(  29) = (   0.1875000   0.1875000   0.9375000  )
        30           Si  tau(  30) = (   0.6875000   0.1875000   0.9375000  )
        31           Si  tau(  31) = (   0.1875000   0.6875000   0.9375000  )
        32           Si  tau(  32) = (   0.6875000   0.6875000   0.9375000  )
        33           Si  tau(  33) = (   0.0625000   0.0625000   0.0625000  )
        34           Si  tau(  34) = (   0.5625000   0.0625000   0.0625000  )
        35           Si  tau(  35) = (   0.0625000   0.5625000   0.0625000  )
        36           Si  tau(  36) = (   0.5625000   0.5625000   0.0625000  )
        37           Si  tau(  37) = (   0.0625000   0.0625000   0.5625000  )
        38           Si  tau(  38) = (   0.5625000   0.0625000   0.5625000  )
        39           Si  tau(  39) = (   0.0625000   0.5625000   0.5625000  )
        40           Si  tau(  40) = (   0.5625000   0.5625000   0.5625000  )
        41           Si  tau(  41) = (   0.0625000   0.3125000   0.3125000  )
        42           Si  tau(  42) = (   0.5625000   0.3125000   0.3125000  )
        43           Si  tau(  43) = (   0.0625000   0.8125000   0.3125000  )
        44           Si  tau(  44) = (   0.5625000   0.8125000   0.3125000  )
        45           Si  tau(  45) = (   0.0625000   0.3125000   0.8125000  )
        46           Si  tau(  46) = (   0.5625000   0.3125000   0.8125000  )
        47           Si  tau(  47) = (   0.0625000   0.8125000   0.8125000  )
        48           Si  tau(  48) = (   0.5625000   0.8125000   0.8125000  )
        49           Si  tau(  49) = (   0.3125000   0.0625000   0.3125000  )
        50           Si  tau(  50) = (   0.8125000   0.0625000   0.3125000  )
        51           Si  tau(  51) = (   0.3125000   0.5625000   0.3125000  )
        52           Si  tau(  52) = (   0.8125000   0.5625000   0.3125000  )
        53           Si  tau(  53) = (   0.3125000   0.0625000   0.8125000  )
        54           Si  tau(  54) = (   0.8125000   0.0625000   0.8125000  )
        55           Si  tau(  55) = (   0.3125000   0.5625000   0.8125000  )
        56           Si  tau(  56) = (   0.8125000   0.5625000   0.8125000  )
        57           Si  tau(  57) = (   0.3125000   0.3125000   0.0625000  )
        58           Si  tau(  58) = (   0.8125000   0.3125000   0.0625000  )
        59           Si  tau(  59) = (   0.3125000   0.8125000   0.0625000  )
        60           Si  tau(  60) = (   0.8125000   0.8125000   0.0625000  )
        61           Si  tau(  61) = (   0.3125000   0.3125000   0.5625000  )
        62           Si  tau(  62) = (   0.8125000   0.3125000   0.5625000  )
        63           Si  tau(  63) = (   0.3125000   0.8125000   0.5625000  )
        64           Si  tau(  64) = (   0.8125000   0.8125000   0.5625000  )

     number of k points=     3  gaussian smearing, width (Ry)=  0.0100
                       cart. coord. in units 2pi/alat
        k(    1) = (   0.2500000   0.2500000   0.2500000), wk =   1.0000000
        k(    2) = (  -0.2500000   0.2500000  -0.2500000), wk =   0.5000000
        k(    3) = (   0.2500000   0.2500000  -0.2500000), wk =   0.5000000

     Dense  grid:   421349 G-vectors     FFT dimensions: (  96,  96,  96)

     Largest allocated arrays     est. size (Mb)     dimensions
        Kohn-Sham Wavefunctions         7.72 Mb     (    3285,  154)
        NL pseudopotentials            25.66 Mb     (    3285,  512)
        Each V/rho on FFT grid          0.84 Mb     (   55296)
        Each G-vector array             0.20 Mb     (   26336)
        G-vector shells                 0.01 Mb     (    1719)
     Largest temporary arrays     est. size (Mb)     dimensions
        Auxiliary wavefunctions        30.88 Mb     (    3285,  616)
        Each subspace H/S matrix        1.45 Mb     (     308,  308)
        Each <psi_i|beta_j> matrix      1.20 Mb     (     512,  154)
        Arrays for rho mixing           6.75 Mb     (   55296,    8)

     Check: negative/imaginary core charge=   -0.000001    0.000000

     Initial potential from superposition of free atoms

     starting charge  255.96421, renormalised to  256.00000
     Starting wfc are  256 randomized atomic wfcs
     Checking if some PAW data can be deallocated... 

     total cpu time spent up to now is        7.8 secs

     per-process dynamical memory:   116.2 Mb

     Self-consistent Calculation

     iteration #  1     ecut=    50.00 Ry     beta=0.70
     Davidson diagonalization with overlap
     ethr =  1.00E-02,  avg # of iterations =  3.0

     Threshold (ethr) on eigenvalues was too large:
     Diagonalizing with lowered threshold

     Davidson diagonalization with overlap
     ethr =  7.00E-04,  avg # of iterations =  1.0

     total cpu time spent up to now is       36.7 secs

     total energy              =   -2990.45694863 Ry
     Harris-Foulkes estimate   =   -2990.87648696 Ry
     estimated scf accuracy    <       1.77345691 Ry

     iteration #  2     ecut=    50.00 Ry     beta=0.70
     Davidson diagonalization with overlap
     ethr =  6.93E-04,  avg # of iterations =  1.0

     total cpu time spent up to now is       47.4 secs

     total energy              =   -2990.52365446 Ry
     Harris-Foulkes estimate   =   -2990.52748152 Ry
     estimated scf accuracy    <       0.07627081 Ry

     iteration #  3     ecut=    50.00 Ry     beta=0.70
     Davidson diagonalization with overlap
     ethr =  2.98E-05,  avg # of iterations = 10.3

     total cpu time spent up to now is       70.4 secs

     total energy              =   -2990.53075733 Ry
     Harris-Foulkes estimate   =   -2990.53136700 Ry
     estimated scf accuracy    <       0.00177155 Ry

     iteration #  4     ecut=    50.00 Ry     beta=0.70
     Davidson diagonalization with overlap
     ethr =  6.92E-07,  avg # of iterations =  7.0

     total cpu time spent up to now is       98.4 secs

     total energy              =   -2990.53096227 Ry
     Harris-Foulkes estimate   =   -2990.53219844 Ry
     estimated scf accuracy    <       0.00352125 Ry

     iteration #  5     ecut=    50.00 Ry     beta=0.70
     Davidson diagonalization with overlap
     ethr =  6.92E-07,  avg # of iterations =  5.7

     total cpu time spent up to now is      116.4 secs

     total energy              =   -2990.53153068 Ry
     Harris-Foulkes estimate   =   -2990.53161158 Ry
     estimated scf accuracy    <       0.00021965 Ry

     iteration #  6     ecut=    50.00 Ry     beta=0.70
     Davidson diagonalization with overlap
     ethr =  8.58E-08,  avg # of iterations =  3.0

     total cpu time spent up to now is      130.9 secs

     total energy              =   -2990.53157209 Ry
     Harris-Foulkes estimate   =   -2990.53159442 Ry
     estimated scf accuracy    <       0.00007041 Ry

     iteration #  7     ecut=    50.00 Ry     beta=0.70
     Davidson diagonalization with overlap
     ethr =  2.75E-08,  avg # of iterations =  2.0

     total cpu time spent up to now is      143.8 secs

     total energy              =   -2990.53158310 Ry
     Harris-Foulkes estimate   =   -2990.53158426 Ry
     estimated scf accuracy    <       0.00000266 Ry

     iteration #  8     ecut=    50.00 Ry     beta=0.70
     Davidson diagonalization with overlap
     ethr =  1.04E-09,  avg # of iterations =  3.0

     total cpu time spent up to now is      161.5 secs

     total energy              =   -2990.53158408 Ry
     Harris-Foulkes estimate   =   -2990.53158428 Ry
     estimated scf accuracy    <       0.00000043 Ry

     iteration #  9     ecut=    50.00 Ry     beta=0.70
     Davidson diagonalization with overlap
     ethr =  1.68E-10,  avg # of iterations =  2.3

     total cpu time spent up to now is      175.4 secs

     total energy              =   -2990.53158409 Ry
     Harris-Foulkes estimate   =   -2990.53158419 Ry
     estimated scf accuracy    <       0.00000017 Ry

     iteration # 10     ecut=    50.00 Ry     beta=0.70
     Davidson diagonalization with overlap
     ethr =  6.83E-11,  avg # of iterations =  2.7

     total cpu time spent up to now is      188.8 secs

     total energy              =   -2990.53158407 Ry
     Harris-Foulkes estimate   =   -2990.53158412 Ry
     estimated scf accuracy    <       0.00000005 Ry

     iteration # 11     ecut=    50.00 Ry     beta=0.70
     Davidson diagonalization with overlap
     ethr =  1.88E-11,  avg # of iterations =  2.0

     total cpu time spent up to now is      202.9 secs

     total energy              =   -2990.53158408 Ry
     Harris-Foulkes estimate   =   -2990.53158408 Ry
     estimated scf accuracy    <          2.0E-09 Ry

     iteration # 12     ecut=    50.00 Ry     beta=0.70
     Davidson diagonalization with overlap
     ethr =  7.67E-13,  avg # of iterations =  3.0

     total cpu time spent up to now is      222.6 secs

     total energy              =   -2990.53158408 Ry
     Harris-Foulkes estimate   =   -2990.53158408 Ry
     estimated scf accuracy    <          2.5E-09 Ry

     iteration # 13     ecut=    50.00 Ry     beta=0.70
     Davidson diagonalization with overlap
     ethr =  7.67E-13,  avg # of iterations =  3.0

     total cpu time spent up to now is      237.2 secs

     End of self-consistent calculation

          k = 0.2500 0.2500 0.2500 ( 52563 PWs)   bands (ev):

    -5.6250  -5.1000  -5.0963  -5.0927  -4.6004  -4.5967  -4.5931  -4.1630
    -4.0671  -4.0634  -4.0598  -3.6545  -3.6494  -3.6477  -3.6463  -3.6446
    -3.6397  -3.4572  -3.4548  -3.4524  -2.9625  -2.9586  -2.9546  -2.5942
    -2.5892  -2.5843  -2.4281  -2.4231  -2.4213  -2.4204  -2.4184  -2.4133
    -0.8877  -0.8815  -0.8788  -0.8774  -0.8750  -0.8696  -0.7860  -0.7804
    -0.7743  -0.6650  -0.6625  -0.6594  -0.5836  -0.5761  -0.5684   0.1263
     0.2017   0.2062   0.2097   0.2117   0.2156   0.2198   1.0782   1.0855
     1.0925   1.4162   1.4184   1.4205   2.0250   2.0268   2.0290   2.0296
     2.0314   2.0331   2.0859   2.0881   2.0907   2.6370   2.6402   2.6431
     2.7392   2.7402   2.7418   2.7445   2.7463   2.7471   2.7931   2.7962
     2.7997   3.1016   3.1048   3.1069   3.1082   3.1103   3.1134   3.3698
     3.3715   3.3735   3.3844   3.3867   3.3879   3.7302   3.7347   3.7389
     3.7531   3.7563   3.7604   3.8366   3.8395   3.8426   4.1076   4.1113
     4.1138   4.1147   4.1168   4.1211   4.1503   4.1536   4.1572   4.4130
     4.4680   4.4715   4.4737   4.7112   4.7144   4.7177   4.7727   4.7787
     4.7857   4.9361   4.9363   5.2392   5.2434   5.2479   5.7238   5.7240
     6.9355   6.9363   6.9370   7.3711   7.3768   7.3823   7.5987   7.8573
     7.8620   7.8662   7.9884   7.9919   7.9948   8.1475   8.1514   8.1550
     8.1664   8.1691   8.1720   8.3954   8.3974   8.4010   8.4038   8.4071
     8.4092   8.4485

          k =-0.2500 0.2500-0.2500 ( 52563 PWs)   bands (ev):

    -5.6250  -5.0996  -5.0962  -5.0931  -4.6000  -4.5966  -4.5936  -4.1633
    -4.0666  -4.0633  -4.0600  -3.6574  -3.6495  -3.6464  -3.6458  -3.6450
    -3.6381  -3.4572  -3.4549  -3.4524  -2.9626  -2.9585  -2.9547  -2.5942
    -2.5892  -2.5843  -2.4284  -2.4238  -2.4206  -2.4204  -2.4184  -2.4132
    -0.8841  -0.8819  -0.8785  -0.8776  -0.8750  -0.8732  -0.7862  -0.7806
    -0.7747  -0.6647  -0.6622  -0.6589  -0.5808  -0.5762  -0.5711   0.1262
     0.2028   0.2062   0.2110   0.2113   0.2146   0.2189   1.0832   1.0853
     1.0876   1.4167   1.4182   1.4202   2.0259   2.0268   2.0273   2.0296
     2.0312   2.0337   2.0861   2.0882   2.0907   2.6370   2.6402   2.6431
     2.7365   2.7377   2.7437   2.7442   2.7472   2.7488   2.7943   2.7973
     2.7987   3.1019   3.1067   3.1077   3.1084   3.1097   3.1113   3.3698
     3.3715   3.3733   3.3841   3.3867   3.3883   3.7322   3.7348   3.7366
     3.7535   3.7563   3.7600   3.8376   3.8398   3.8411   4.1074   4.1126
     4.1147   4.1153   4.1167   4.1185   4.1515   4.1543   4.1555   4.4131
     4.4679   4.4711   4.4736   4.7122   4.7146   4.7168   4.7753   4.7787
     4.7824   4.9363   4.9363   5.2404   5.2436   5.2466   5.7239   5.7242
     6.9354   6.9363   6.9369   7.3739   7.3768   7.3795   7.5987   7.8596
     7.8619   7.8640   7.9883   7.9918   7.9949   8.1482   8.1515   8.1536
     8.1671   8.1691   8.1721   8.3960   8.3993   8.4029   8.4040   8.4055
     8.4066   8.4485

          k = 0.2500 0.2500-0.2500 ( 52563 PWs)   bands (ev):

    -5.6250  -5.0995  -5.0962  -5.0932  -4.5998  -4.5966  -4.5938  -4.1633
    -4.0667  -4.0633  -4.0598  -3.6562  -3.6490  -3.6482  -3.6474  -3.6445
    -3.6370  -3.4572  -3.4549  -3.4524  -2.9624  -2.9585  -2.9549  -2.5942
    -2.5892  -2.5843  -2.4281  -2.4233  -2.4213  -2.4211  -2.4180  -2.4129
    -0.8845  -0.8814  -0.8785  -0.8780  -0.8745  -0.8732  -0.7863  -0.7806
    -0.7746  -0.6647  -0.6622  -0.6589  -0.5810  -0.5762  -0.5710   0.1262
     0.2029   0.2068   0.2101   0.2107   0.2151   0.2192   1.0832   1.0853
     1.0876   1.4167   1.4182   1.4202   2.0245   2.0271   2.0290   2.0303
     2.0314   2.0321   2.0860   2.0882   2.0908   2.6371   2.6402   2.6431
     2.7375   2.7381   2.7424   2.7430   2.7475   2.7497   2.7942   2.7973
     2.7988   3.1039   3.1055   3.1068   3.1074   3.1086   3.1134   3.3696
     3.3714   3.3736   3.3849   3.3867   3.3876   3.7328   3.7348   3.7361
     3.7527   3.7563   3.7607   3.8375   3.8398   3.8412   4.1100   4.1112
     4.1130   4.1138   4.1158   4.1216   4.1514   4.1542   4.1557   4.4131
     4.4679   4.4711   4.4736   4.7122   4.7146   4.7169   4.7752   4.7787
     4.7825   4.9363   4.9363   5.2403   5.2436   5.2466   5.7239   5.7242
     6.9354   6.9363   6.9369   7.3739   7.3768   7.3794   7.5987   7.8597
     7.8619   7.8639   7.9886   7.9918   7.9947   8.1485   8.1515   8.1535
     8.1664   8.1691   8.1726   8.3978   8.3996   8.4009   8.4023   8.4058
     8.4078   8.4486

     the Fermi energy is     6.3278 ev

!    total energy              =   -2990.53158408 Ry
     Harris-Foulkes estimate   =   -2990.53158408 Ry
     estimated scf accuracy    <          3.2E-10 Ry

     total all-electron energy =    -37124.667137 Ry

     The total energy is the sum of the following terms:

     one-electron contribution =     178.60701548 Ry
     hartree contribution      =      35.70121546 Ry
     xc contribution           =    -391.44200683 Ry
     ewald contribution        =    -534.00650033 Ry
     one-center paw contrib.   =   -2279.39130786 Ry
     smearing contrib. (-TS)   =       0.00000000 Ry

     convergence has been achieved in  13 iterations

     Forces acting on atoms (Ry/au):

     atom    1 type  1   force =    -0.01536722    0.00011410   -0.00011410
     atom    2 type  1   force =     0.00002224    0.00000925   -0.00000925
     atom    3 type  1   force =     0.00057884    0.00010968    0.00011004
     atom    4 type  1   force =    -0.00000787    0.00000957    0.00000992
     atom    5 type  1   force =     0.00057884   -0.00011004   -0.00010968
     atom    6 type  1   force =    -0.00000787   -0.00000992   -0.00000957
     atom    7 type  1   force =     0.00005316   -0.00011389    0.00011389
     atom    8 type  1   force =     0.00002468   -0.00000862    0.00000862
     atom    9 type  1   force =    -0.00058260    0.00011403    0.00011372
     atom   10 type  1   force =     0.00000633    0.00000961    0.00000921
     atom   11 type  1   force =     0.01536328    0.00010927   -0.00010927
     atom   12 type  1   force =    -0.00002188    0.00000953   -0.00000953
     atom   13 type  1   force =    -0.00004896   -0.00010966    0.00010966
     atom   14 type  1   force =    -0.00002409   -0.00001009    0.00001009
     atom   15 type  1   force =    -0.00058260   -0.00011372   -0.00011403
     atom   16 type  1   force =     0.00000633   -0.00000921   -0.00000961
     atom   17 type  1   force =    -0.00000603   -0.00034230    0.00034192
     atom   18 type  1   force =     0.00000647    0.00011283   -0.00012310
     atom   19 type  1   force =    -0.00019603    0.00022375   -0.00019095
     atom   20 type  1   force =    -0.00018859   -0.00023654   -0.00003394
     atom   21 type  1   force =     0.00018830    0.00018637   -0.00021784
     atom   22 type  1   force =     0.00019579    0.00003651    0.00024199
     atom   23 type  1   force =    -0.00000051   -0.00006713    0.00006760
     atom   24 type  1   force =     0.00000084    0.00008612   -0.00008608
     atom   25 type  1   force =     0.00018830    0.00021784   -0.00018637
     atom   26 type  1   force =     0.00019579   -0.00024199   -0.00003651
     atom   27 type  1   force =    -0.00000603   -0.00034192    0.00034230
     atom   28 type  1   force =     0.00000647    0.00012310   -0.00011283
     atom   29 type  1   force =    -0.00000051   -0.00006760    0.00006713
     atom   30 type  1   force =     0.00000084    0.00008608   -0.00008612
     atom   31 type  1   force =    -0.00019603    0.00019095   -0.00022375
     atom   32 type  1   force =    -0.00018859    0.00003394    0.00023654
     atom   33 type  1   force =    -0.00005007    0.00005850    0.00006001
     atom   34 type  1   force =     0.00031521    0.00006595    0.00007934
     atom   35 type  1   force =     0.00003833    0.00006377    0.00006234
     atom   36 type  1   force =    -0.00387168    0.00253003    0.00252066
     atom   37 type  1   force =     0.00004691    0.00005535    0.00005761
     atom   38 type  1   force =    -0.00031291    0.00006561    0.00007789
     atom   39 type  1   force =    -0.00004123    0.00006781    0.00006528
     atom   40 type  1   force =     0.00398892    0.00275852    0.00274211
     atom   41 type  1   force =    -0.00004123   -0.00006528   -0.00006781
     atom   42 type  1   force =     0.00398892   -0.00274211   -0.00275852
     atom   43 type  1   force =     0.00003833   -0.00006234   -0.00006377
     atom   44 type  1   force =    -0.00387168   -0.00252066   -0.00253003
     atom   45 type  1   force =     0.00004691   -0.00005761   -0.00005535
     atom   46 type  1   force =    -0.00031291   -0.00007789   -0.00006561
     atom   47 type  1   force =    -0.00005007   -0.00006001   -0.00005850
     atom   48 type  1   force =     0.00031521   -0.00007934   -0.00006595
     atom   49 type  1   force =     0.00000153   -0.00007587    0.00010152
     atom   50 type  1   force =     0.00000202   -0.00005139    0.00005533
     atom   51 type  1   force =    -0.00011206   -0.00518745    0.00518745
     atom   52 type  1   force =     0.00000017   -0.00007645    0.00007645
     atom   53 type  1   force =    -0.00000343   -0.00005562    0.00005562
     atom   54 type  1   force =     0.00000060   -0.00006197    0.00006197
     atom   55 type  1   force =     0.00000153   -0.00010152    0.00007587
     atom   56 type  1   force =     0.00000202   -0.00005533    0.00005139
     atom   57 type  1   force =     0.00000136    0.00009004   -0.00008733
     atom   58 type  1   force =     0.00000201    0.00005351   -0.00005335
     atom   59 type  1   force =    -0.00367564    0.00273383   -0.00273383
     atom   60 type  1   force =    -0.00000875    0.00006918   -0.00006918
     atom   61 type  1   force =     0.00355778    0.00250897   -0.00250897
     atom   62 type  1   force =     0.00000945    0.00006922   -0.00006922
     atom   63 type  1   force =     0.00000136    0.00008733   -0.00009004
     atom   64 type  1   force =     0.00000201    0.00005335   -0.00005351

     Total force =     0.026475     Total SCF correction =     0.000034

     Writing output data file pwscf.save
 
     init_run     :      7.40s CPU      7.60s WALL (       1 calls)
     electrons    :    222.85s CPU    243.36s WALL (       1 calls)
     forces       :      3.30s CPU      3.46s WALL (       1 calls)

     Called by init_run:
     wfcinit      :      6.83s CPU      6.95s WALL (       1 calls)
     potinit      :      0.22s CPU      0.22s WALL (       1 calls)

     Called by electrons:
     c_bands      :    200.63s CPU    206.93s WALL (      14 calls)
     sum_band     :     18.69s CPU     18.92s WALL (      14 calls)
     v_of_rho     :      0.55s CPU      0.56s WALL (      14 calls)
     newd         :      0.86s CPU      0.89s WALL (      14 calls)
     PAW_pot      :      2.12s CPU      2.13s WALL (      14 calls)
     mix_rho      :      0.18s CPU      0.19s WALL (      14 calls)

     Called by c_bands:
     init_us_2    :      0.86s CPU      0.90s WALL (      90 calls)
     cegterg      :    197.33s CPU    202.25s WALL (      42 calls)

     Called by sum_band:
     sum_band:bec :      0.04s CPU      0.04s WALL (      42 calls)
     addusdens    :      0.85s CPU      0.95s WALL (      14 calls)

     Called by *egterg:
     h_psi        :     92.28s CPU     92.58s WALL (     192 calls)
     s_psi        :     24.92s CPU     24.98s WALL (     192 calls)
     g_psi        :      0.58s CPU      0.58s WALL (     147 calls)
     cdiaghg      :     28.12s CPU     28.16s WALL (     186 calls)

     Called by h_psi:
     add_vuspsi   :     25.00s CPU     25.05s WALL (     192 calls)

     General routines
     calbec       :     37.57s CPU     37.64s WALL (     246 calls)
     fft          :      0.42s CPU      0.43s WALL (     195 calls)
     fftw         :     44.51s CPU     44.63s WALL (   42380 calls)
     davcio       :      0.00s CPU      0.01s WALL (       3 calls)
 
     Parallel routines
     fft_scatter  :     14.75s CPU     14.26s WALL (   42575 calls)
 
     PWSCF        :  3m54.48s CPU     4m42.13s WALL

 
   This run was terminated on:  13:38:53   3Feb2016            

=------------------------------------------------------------------------------=
   JOB DONE.
=------------------------------------------------------------------------------=
