
     Program PWSCF v.5.3.0 (svn rev. 11974) starts on  3Feb2016 at 13:45:43 

     This program is part of the open-source Quantum ESPRESSO suite
     for quantum simulation of materials; please cite
         "P. Giannozzi et al., J. Phys.:Condens. Matter 21 395502 (2009);
          URL http://www.quantum-espresso.org", 
     in publications or presentations arising from this work. More details at
     http://www.quantum-espresso.org/quote

     Parallel version (MPI), running on    16 processors
     R & G space division:  proc/nbgrp/npool/nimage =      16
     Reading input from Si.in

     Current dimensions of program PWSCF are:
     Max number of different atomic species (ntypx) = 10
     Max number of k-points (npk) =  40000
     Max angular momentum in pseudopotentials (lmaxx) =  3
               file Si.pbe-n-kjpaw_psl.0.1.UPF: wavefunction(s)  3S renormalized

     Subspace diagonalization in iterative solution of the eigenvalue problem:
     one sub-group per k-point group (pool) will be used
     scalapack distributed-memory algorithm (size of sub-group:  2*  2 procs)

 
     Parallelization info
     --------------------
     sticks:   dense  smooth     PW     G-vecs:    dense   smooth      PW
     Min         424     424    109                26332    26332    3467
     Max         425     425    110                26336    26336    3472
     Sum        6785    6785   1757               421349   421349   55515
 


     bravais-lattice index     =            0
     lattice parameter (alat)  =      20.6591  a.u.
     unit-cell volume          =    8817.2783 (a.u.)^3
     number of atoms/cell      =           64
     number of atomic types    =            1
     number of electrons       =       256.00
     number of Kohn-Sham states=          154
     kinetic-energy cutoff     =      50.0000  Ry
     charge density cutoff     =     200.0000  Ry
     convergence threshold     =      1.0E-09
     mixing beta               =       0.7000
     number of iterations used =            8  plain     mixing
     Exchange-correlation      =  SLA  PW   PBX  PBC ( 1  4  3  4 0 0)

     celldm(1)=  20.659106  celldm(2)=   0.000000  celldm(3)=   0.000000
     celldm(4)=   0.000000  celldm(5)=   0.000000  celldm(6)=   0.000000

     crystal axes: (cart. coord. in units of alat)
               a(1) = (   1.000000   0.000000   0.000000 )  
               a(2) = (   0.000000   1.000000   0.000000 )  
               a(3) = (   0.000000   0.000000   1.000000 )  

     reciprocal axes: (cart. coord. in units 2 pi/alat)
               b(1) = (  1.000000  0.000000  0.000000 )  
               b(2) = (  0.000000  1.000000  0.000000 )  
               b(3) = (  0.000000  0.000000  1.000000 )  


     PseudoPot. # 1 for Si read from file:
     /home/togo/espresso/pseudo/Si.pbe-n-kjpaw_psl.0.1.UPF
     MD5 check sum: b9d333a40e496bef61db012f150758bf
     Pseudo is Projector augmented-wave + core cor, Zval =  4.0
     Generated using "atomic" code by A. Dal Corso  v.5.0.2 svn rev. 9415
     Shape of augmentation charge: PSQ
     Using radial grid of 1141 points,  4 beta functions with: 
                l(1) =   0
                l(2) =   0
                l(3) =   1
                l(4) =   1
     Q(r) pseudized with 0 coefficients 


     atomic species   valence    mass     pseudopotential
        Si             4.00    28.08550     Si( 1.00)

      2 Sym. Ops. (no inversion) found



   Cartesian axes

     site n.     atom                  positions (alat units)
         1           Si  tau(   1) = (   0.4404043   0.4375000   0.4375000  )
         2           Si  tau(   2) = (   0.9375000   0.4375000   0.4375000  )
         3           Si  tau(   3) = (   0.4375000   0.9375000   0.4375000  )
         4           Si  tau(   4) = (   0.9375000   0.9375000   0.4375000  )
         5           Si  tau(   5) = (   0.4375000   0.4375000   0.9375000  )
         6           Si  tau(   6) = (   0.9375000   0.4375000   0.9375000  )
         7           Si  tau(   7) = (   0.4375000   0.9375000   0.9375000  )
         8           Si  tau(   8) = (   0.9375000   0.9375000   0.9375000  )
         9           Si  tau(   9) = (   0.4375000   0.1875000   0.1875000  )
        10           Si  tau(  10) = (   0.9375000   0.1875000   0.1875000  )
        11           Si  tau(  11) = (   0.4375000   0.6875000   0.1875000  )
        12           Si  tau(  12) = (   0.9375000   0.6875000   0.1875000  )
        13           Si  tau(  13) = (   0.4375000   0.1875000   0.6875000  )
        14           Si  tau(  14) = (   0.9375000   0.1875000   0.6875000  )
        15           Si  tau(  15) = (   0.4375000   0.6875000   0.6875000  )
        16           Si  tau(  16) = (   0.9375000   0.6875000   0.6875000  )
        17           Si  tau(  17) = (   0.1875000   0.4375000   0.1875000  )
        18           Si  tau(  18) = (   0.6875000   0.4375000   0.1875000  )
        19           Si  tau(  19) = (   0.1875000   0.9375000   0.1875000  )
        20           Si  tau(  20) = (   0.6875000   0.9375000   0.1875000  )
        21           Si  tau(  21) = (   0.1875000   0.4375000   0.6875000  )
        22           Si  tau(  22) = (   0.6875000   0.4375000   0.6875000  )
        23           Si  tau(  23) = (   0.1875000   0.9375000   0.6875000  )
        24           Si  tau(  24) = (   0.6875000   0.9375000   0.6875000  )
        25           Si  tau(  25) = (   0.1875000   0.1875000   0.4375000  )
        26           Si  tau(  26) = (   0.6875000   0.1875000   0.4375000  )
        27           Si  tau(  27) = (   0.1875000   0.6875000   0.4375000  )
        28           Si  tau(  28) = (   0.6875000   0.6875000   0.4375000  )
        29           Si  tau(  29) = (   0.1875000   0.1875000   0.9375000  )
        30           Si  tau(  30) = (   0.6875000   0.1875000   0.9375000  )
        31           Si  tau(  31) = (   0.1875000   0.6875000   0.9375000  )
        32           Si  tau(  32) = (   0.6875000   0.6875000   0.9375000  )
        33           Si  tau(  33) = (   0.0625000   0.0625000   0.0625000  )
        34           Si  tau(  34) = (   0.5625000   0.0625000   0.0625000  )
        35           Si  tau(  35) = (   0.0625000   0.5625000   0.0625000  )
        36           Si  tau(  36) = (   0.5625000   0.5625000   0.0625000  )
        37           Si  tau(  37) = (   0.0625000   0.0625000   0.5625000  )
        38           Si  tau(  38) = (   0.5625000   0.0625000   0.5625000  )
        39           Si  tau(  39) = (   0.0654043   0.5625000   0.5625000  )
        40           Si  tau(  40) = (   0.5625000   0.5625000   0.5625000  )
        41           Si  tau(  41) = (   0.0625000   0.3125000   0.3125000  )
        42           Si  tau(  42) = (   0.5625000   0.3125000   0.3125000  )
        43           Si  tau(  43) = (   0.0625000   0.8125000   0.3125000  )
        44           Si  tau(  44) = (   0.5625000   0.8125000   0.3125000  )
        45           Si  tau(  45) = (   0.0625000   0.3125000   0.8125000  )
        46           Si  tau(  46) = (   0.5625000   0.3125000   0.8125000  )
        47           Si  tau(  47) = (   0.0625000   0.8125000   0.8125000  )
        48           Si  tau(  48) = (   0.5625000   0.8125000   0.8125000  )
        49           Si  tau(  49) = (   0.3125000   0.0625000   0.3125000  )
        50           Si  tau(  50) = (   0.8125000   0.0625000   0.3125000  )
        51           Si  tau(  51) = (   0.3125000   0.5625000   0.3125000  )
        52           Si  tau(  52) = (   0.8125000   0.5625000   0.3125000  )
        53           Si  tau(  53) = (   0.3125000   0.0625000   0.8125000  )
        54           Si  tau(  54) = (   0.8125000   0.0625000   0.8125000  )
        55           Si  tau(  55) = (   0.3125000   0.5625000   0.8125000  )
        56           Si  tau(  56) = (   0.8125000   0.5625000   0.8125000  )
        57           Si  tau(  57) = (   0.3125000   0.3125000   0.0625000  )
        58           Si  tau(  58) = (   0.8125000   0.3125000   0.0625000  )
        59           Si  tau(  59) = (   0.3125000   0.8125000   0.0625000  )
        60           Si  tau(  60) = (   0.8125000   0.8125000   0.0625000  )
        61           Si  tau(  61) = (   0.3125000   0.3125000   0.5625000  )
        62           Si  tau(  62) = (   0.8125000   0.3125000   0.5625000  )
        63           Si  tau(  63) = (   0.3125000   0.8125000   0.5625000  )
        64           Si  tau(  64) = (   0.8125000   0.8125000   0.5625000  )

     number of k points=     3  gaussian smearing, width (Ry)=  0.0100
                       cart. coord. in units 2pi/alat
        k(    1) = (   0.2500000   0.2500000   0.2500000), wk =   0.5000000
        k(    2) = (  -0.2500000   0.2500000  -0.2500000), wk =   1.0000000
        k(    3) = (   0.2500000  -0.2500000  -0.2500000), wk =   0.5000000

     Dense  grid:   421349 G-vectors     FFT dimensions: (  96,  96,  96)

     Largest allocated arrays     est. size (Mb)     dimensions
        Kohn-Sham Wavefunctions         7.72 Mb     (    3285,  154)
        NL pseudopotentials            25.66 Mb     (    3285,  512)
        Each V/rho on FFT grid          0.84 Mb     (   55296)
        Each G-vector array             0.20 Mb     (   26336)
        G-vector shells                 0.01 Mb     (    1719)
     Largest temporary arrays     est. size (Mb)     dimensions
        Auxiliary wavefunctions        30.88 Mb     (    3285,  616)
        Each subspace H/S matrix        1.45 Mb     (     308,  308)
        Each <psi_i|beta_j> matrix      1.20 Mb     (     512,  154)
        Arrays for rho mixing           6.75 Mb     (   55296,    8)

     Check: negative/imaginary core charge=   -0.000001    0.000000

     Initial potential from superposition of free atoms

     starting charge  255.96421, renormalised to  256.00000
     Starting wfc are  256 randomized atomic wfcs
     Checking if some PAW data can be deallocated... 

     total cpu time spent up to now is       10.8 secs

     per-process dynamical memory:   115.9 Mb

     Self-consistent Calculation

     iteration #  1     ecut=    50.00 Ry     beta=0.70
     Davidson diagonalization with overlap
     ethr =  1.00E-02,  avg # of iterations =  3.0

     Threshold (ethr) on eigenvalues was too large:
     Diagonalizing with lowered threshold

     Davidson diagonalization with overlap
     ethr =  7.00E-04,  avg # of iterations =  1.0

     total cpu time spent up to now is       52.0 secs

     total energy              =   -2990.45690270 Ry
     Harris-Foulkes estimate   =   -2990.87655699 Ry
     estimated scf accuracy    <       1.77360641 Ry

     iteration #  2     ecut=    50.00 Ry     beta=0.70
     Davidson diagonalization with overlap
     ethr =  6.93E-04,  avg # of iterations =  1.0

     total cpu time spent up to now is       64.4 secs

     total energy              =   -2990.52362080 Ry
     Harris-Foulkes estimate   =   -2990.52745107 Ry
     estimated scf accuracy    <       0.07625379 Ry

     iteration #  3     ecut=    50.00 Ry     beta=0.70
     Davidson diagonalization with overlap
     ethr =  2.98E-05,  avg # of iterations = 10.7

     total cpu time spent up to now is       91.3 secs

     total energy              =   -2990.53064855 Ry
     Harris-Foulkes estimate   =   -2990.53134046 Ry
     estimated scf accuracy    <       0.00185817 Ry

     iteration #  4     ecut=    50.00 Ry     beta=0.70
     Davidson diagonalization with overlap
     ethr =  7.26E-07,  avg # of iterations =  5.3

     total cpu time spent up to now is      117.7 secs

     total energy              =   -2990.53056002 Ry
     Harris-Foulkes estimate   =   -2990.53254066 Ry
     estimated scf accuracy    <       0.00637169 Ry

     iteration #  5     ecut=    50.00 Ry     beta=0.70
     Davidson diagonalization with overlap
     ethr =  7.26E-07,  avg # of iterations =  4.0

     total cpu time spent up to now is      136.5 secs

     total energy              =   -2990.53149583 Ry
     Harris-Foulkes estimate   =   -2990.53158517 Ry
     estimated scf accuracy    <       0.00024495 Ry

     iteration #  6     ecut=    50.00 Ry     beta=0.70
     Davidson diagonalization with overlap
     ethr =  9.57E-08,  avg # of iterations =  3.0

     total cpu time spent up to now is      151.8 secs

     total energy              =   -2990.53154175 Ry
     Harris-Foulkes estimate   =   -2990.53155951 Ry
     estimated scf accuracy    <       0.00005074 Ry

     iteration #  7     ecut=    50.00 Ry     beta=0.70
     Davidson diagonalization with overlap
     ethr =  1.98E-08,  avg # of iterations =  2.0

     total cpu time spent up to now is      165.8 secs

     total energy              =   -2990.53155079 Ry
     Harris-Foulkes estimate   =   -2990.53155205 Ry
     estimated scf accuracy    <       0.00000286 Ry

     iteration #  8     ecut=    50.00 Ry     beta=0.70
     Davidson diagonalization with overlap
     ethr =  1.12E-09,  avg # of iterations =  3.0

     total cpu time spent up to now is      183.6 secs

     total energy              =   -2990.53155175 Ry
     Harris-Foulkes estimate   =   -2990.53155192 Ry
     estimated scf accuracy    <       0.00000036 Ry

     iteration #  9     ecut=    50.00 Ry     beta=0.70
     Davidson diagonalization with overlap
     ethr =  1.40E-10,  avg # of iterations =  3.0

     total cpu time spent up to now is      199.1 secs

     total energy              =   -2990.53155174 Ry
     Harris-Foulkes estimate   =   -2990.53155184 Ry
     estimated scf accuracy    <       0.00000014 Ry

     iteration # 10     ecut=    50.00 Ry     beta=0.70
     Davidson diagonalization with overlap
     ethr =  5.62E-11,  avg # of iterations =  3.0

     total cpu time spent up to now is      213.7 secs

     total energy              =   -2990.53155172 Ry
     Harris-Foulkes estimate   =   -2990.53155177 Ry
     estimated scf accuracy    <       0.00000005 Ry

     iteration # 11     ecut=    50.00 Ry     beta=0.70
     Davidson diagonalization with overlap
     ethr =  1.93E-11,  avg # of iterations =  2.0

     total cpu time spent up to now is      227.6 secs

     total energy              =   -2990.53155174 Ry
     Harris-Foulkes estimate   =   -2990.53155173 Ry
     estimated scf accuracy    <          1.6E-09 Ry

     iteration # 12     ecut=    50.00 Ry     beta=0.70
     Davidson diagonalization with overlap
     ethr =  6.14E-13,  avg # of iterations =  3.0

     total cpu time spent up to now is      250.8 secs

     End of self-consistent calculation

          k = 0.2500 0.2500 0.2500 ( 52563 PWs)   bands (ev):

    -5.6250  -5.0965  -5.0963  -5.0962  -4.5971  -4.5966  -4.5965  -4.1631
    -4.0639  -4.0633  -4.0631  -3.6560  -3.6490  -3.6471  -3.6469  -3.6449
    -3.6385  -3.4571  -3.4549  -3.4522  -2.9615  -2.9585  -2.9559  -2.5942
    -2.5892  -2.5843  -2.4277  -2.4234  -2.4208  -2.4208  -2.4183  -2.4134
    -0.8844  -0.8815  -0.8789  -0.8780  -0.8749  -0.8721  -0.7864  -0.7805
    -0.7748  -0.6649  -0.6623  -0.6592  -0.5828  -0.5763  -0.5690   0.1262
     0.2022   0.2066   0.2107   0.2108   0.2147   0.2196   1.0826   1.0853
     1.0883   1.4166   1.4182   1.4201   2.0263   2.0277   2.0289   2.0292
     2.0305   2.0314   2.0853   2.0882   2.0919   2.6374   2.6402   2.6425
     2.7380   2.7401   2.7422   2.7431   2.7464   2.7478   2.7953   2.7972
     2.7982   3.1046   3.1067   3.1076   3.1077   3.1084   3.1103   3.3705
     3.3719   3.3720   3.3843   3.3874   3.3876   3.7338   3.7349   3.7353
     3.7536   3.7562   3.7595   3.8370   3.8398   3.8418   4.1075   4.1130
     4.1134   4.1142   4.1154   4.1214   4.1507   4.1547   4.1563   4.4128
     4.4706   4.4709   4.4716   4.7113   4.7146   4.7176   4.7739   4.7787
     4.7841   4.9363   4.9364   5.2392   5.2437   5.2479   5.7239   5.7241
     6.9357   6.9363   6.9367   7.3734   7.3767   7.3800   7.5987   7.8596
     7.8619   7.8640   7.9884   7.9918   7.9947   8.1510   8.1514   8.1519
     8.1689   8.1691   8.1693   8.3966   8.3992   8.4023   8.4026   8.4058
     8.4072   8.4483

          k =-0.2500 0.2500-0.2500 ( 52563 PWs)   bands (ev):

    -5.6250  -5.0989  -5.0964  -5.0938  -4.5994  -4.5968  -4.5940  -4.1631
    -4.0662  -4.0633  -4.0607  -3.6551  -3.6498  -3.6486  -3.6455  -3.6443
    -3.6392  -3.4600  -3.4549  -3.4495  -2.9629  -2.9585  -2.9543  -2.5944
    -2.5891  -2.5842  -2.4283  -2.4235  -2.4223  -2.4193  -2.4181  -2.4131
    -0.8851  -0.8819  -0.8810  -0.8755  -0.8746  -0.8718  -0.7851  -0.7806
    -0.7759  -0.6656  -0.6621  -0.6584  -0.5830  -0.5762  -0.5690   0.1263
     0.2031   0.2055   0.2083   0.2131   0.2161   0.2185   1.0797   1.0854
     1.0909   1.4160   1.4183   1.4206   2.0251   2.0275   2.0291   2.0294
     2.0305   2.0327   2.0855   2.0882   2.0915   2.6378   2.6400   2.6425
     2.7385   2.7398   2.7425   2.7433   2.7461   2.7477   2.7949   2.7965
     2.7991   3.1021   3.1051   3.1063   3.1089   3.1101   3.1129   3.3699
     3.3716   3.3739   3.3840   3.3860   3.3882   3.7311   3.7345   3.7371
     3.7518   3.7569   3.7618   3.8366   3.8396   3.8424   4.1060   4.1113
     4.1137   4.1148   4.1173   4.1223   4.1503   4.1539   4.1571   4.4131
     4.4685   4.4710   4.4735   4.7111   4.7145   4.7179   4.7731   4.7787
     4.7851   4.9359   4.9363   5.2391   5.2436   5.2482   5.7239   5.7241
     6.9322   6.9362   6.9402   7.3725   7.3768   7.3809   7.5987   7.8585
     7.8619   7.8649   7.9871   7.9916   7.9965   8.1489   8.1516   8.1539
     8.1656   8.1693   8.1722   8.3962   8.3983   8.4010   8.4039   8.4063
     8.4084   8.4481

          k = 0.2500-0.2500-0.2500 ( 52563 PWs)   bands (ev):

    -5.6250  -5.0997  -5.0962  -5.0931  -4.5997  -4.5966  -4.5940  -4.1634
    -4.0664  -4.0633  -4.0602  -3.6544  -3.6477  -3.6473  -3.6470  -3.6462
    -3.6399  -3.4550  -3.4549  -3.4547  -2.9599  -2.9585  -2.9572  -2.5895
    -2.5892  -2.5889  -2.4282  -2.4215  -2.4209  -2.4208  -2.4202  -2.4130
    -0.8857  -0.8787  -0.8783  -0.8781  -0.8775  -0.8714  -0.7812  -0.7805
    -0.7802  -0.6624  -0.6621  -0.6617  -0.5816  -0.5762  -0.5704   0.1263
     0.2057   0.2098   0.2107   0.2108   0.2115   0.2161   1.0843   1.0853
     1.0866   1.4183   1.4183   1.4184   2.0254   2.0267   2.0288   2.0293
     2.0316   2.0328   2.0862   2.0880   2.0906   2.6385   2.6402   2.6416
     2.7386   2.7389   2.7432   2.7434   2.7472   2.7480   2.7935   2.7962
     2.7995   3.1029   3.1070   3.1075   3.1076   3.1082   3.1121   3.3696
     3.3716   3.3734   3.3859   3.3865   3.3870   3.7321   3.7349   3.7367
     3.7544   3.7563   3.7587   3.8384   3.8399   3.8404   4.1081   4.1137
     4.1143   4.1143   4.1149   4.1202   4.1520   4.1546   4.1547   4.4128
     4.4679   4.4715   4.4736   4.7131   4.7146   4.7162   4.7759   4.7787
     4.7820   4.9362   4.9364   5.2410   5.2438   5.2459   5.7239   5.7241
     6.9356   6.9363   6.9368   7.3729   7.3767   7.3805   7.5987   7.8587
     7.8620   7.8648   7.9914   7.9916   7.9918   8.1479   8.1512   8.1536
     8.1670   8.1693   8.1727   8.3989   8.3990   8.4023   8.4026   8.4050
     8.4061   8.4483

     the Fermi energy is     6.3276 ev

!    total energy              =   -2990.53155174 Ry
     Harris-Foulkes estimate   =   -2990.53155174 Ry
     estimated scf accuracy    <          8.6E-10 Ry

     total all-electron energy =    -37124.667105 Ry

     The total energy is the sum of the following terms:

     one-electron contribution =     178.60729897 Ry
     hartree contribution      =      35.70106115 Ry
     xc contribution           =    -391.44199357 Ry
     ewald contribution        =    -534.00661353 Ry
     one-center paw contrib.   =   -2279.39130476 Ry
     smearing contrib. (-TS)   =       0.00000000 Ry

     convergence has been achieved in  12 iterations

     Forces acting on atoms (Ry/au):

     atom    1 type  1   force =    -0.01590247    0.00003816    0.00003816
     atom    2 type  1   force =     0.00383436    0.00248101    0.00248101
     atom    3 type  1   force =     0.00008290    0.00002687    0.00002890
     atom    4 type  1   force =    -0.00006648    0.00003729    0.00005108
     atom    5 type  1   force =     0.00008290    0.00002890    0.00002687
     atom    6 type  1   force =    -0.00006648    0.00005108    0.00003729
     atom    7 type  1   force =    -0.00049522    0.00003030    0.00003030
     atom    8 type  1   force =     0.00027587    0.00002708    0.00002708
     atom    9 type  1   force =    -0.00054974    0.00008337    0.00008337
     atom   10 type  1   force =     0.00025260   -0.00001791   -0.00001791
     atom   11 type  1   force =    -0.00049572    0.00008086   -0.00013687
     atom   12 type  1   force =    -0.00005820   -0.00004217   -0.00004614
     atom   13 type  1   force =    -0.00049572   -0.00013687    0.00008086
     atom   14 type  1   force =    -0.00005820   -0.00004614   -0.00004217
     atom   15 type  1   force =    -0.00053960   -0.00015168   -0.00015168
     atom   16 type  1   force =     0.00381294   -0.00248990   -0.00248990
     atom   17 type  1   force =     0.00017083   -0.00016079    0.00026687
     atom   18 type  1   force =     0.00026499   -0.00014105   -0.00020651
     atom   19 type  1   force =     0.00029891   -0.00003688   -0.00004885
     atom   20 type  1   force =     0.00002178   -0.00004047    0.00010674
     atom   21 type  1   force =     0.00416032   -0.00259444    0.00247716
     atom   22 type  1   force =     0.00022520    0.00007572    0.00027073
     atom   23 type  1   force =    -0.00001776   -0.00003048    0.00012796
     atom   24 type  1   force =     0.00006888   -0.00001736   -0.00004827
     atom   25 type  1   force =     0.00017083    0.00026687   -0.00016079
     atom   26 type  1   force =     0.00026499   -0.00020651   -0.00014105
     atom   27 type  1   force =     0.00416032    0.00247716   -0.00259444
     atom   28 type  1   force =     0.00022520    0.00027073    0.00007572
     atom   29 type  1   force =     0.00029891   -0.00004885   -0.00003688
     atom   30 type  1   force =     0.00002178    0.00010674   -0.00004047
     atom   31 type  1   force =    -0.00001776    0.00012796   -0.00003048
     atom   32 type  1   force =     0.00006888   -0.00004827   -0.00001736
     atom   33 type  1   force =    -0.00049611    0.00003188    0.00003188
     atom   34 type  1   force =     0.00028192    0.00002729    0.00002729
     atom   35 type  1   force =     0.00008023    0.00002623    0.00002550
     atom   36 type  1   force =    -0.00006839    0.00005066    0.00003795
     atom   37 type  1   force =     0.00008023    0.00002550    0.00002623
     atom   38 type  1   force =    -0.00006839    0.00003795    0.00005066
     atom   39 type  1   force =    -0.01590138    0.00003827    0.00003827
     atom   40 type  1   force =     0.00395156    0.00270505    0.00270505
     atom   41 type  1   force =    -0.00053620   -0.00014785   -0.00014785
     atom   42 type  1   force =     0.00393051   -0.00271400   -0.00271400
     atom   43 type  1   force =    -0.00050266   -0.00013920    0.00008760
     atom   44 type  1   force =    -0.00006077   -0.00004786   -0.00004077
     atom   45 type  1   force =    -0.00050266    0.00008760   -0.00013920
     atom   46 type  1   force =    -0.00006077   -0.00004077   -0.00004786
     atom   47 type  1   force =    -0.00054517    0.00007740    0.00007740
     atom   48 type  1   force =     0.00025863   -0.00001844   -0.00001844
     atom   49 type  1   force =    -0.00001608   -0.00002788    0.00012801
     atom   50 type  1   force =     0.00007131   -0.00001762   -0.00004840
     atom   51 type  1   force =     0.00405004   -0.00236830    0.00224895
     atom   52 type  1   force =     0.00021906    0.00007144    0.00026517
     atom   53 type  1   force =     0.00029622   -0.00003720   -0.00004883
     atom   54 type  1   force =     0.00002014   -0.00004112    0.00010856
     atom   55 type  1   force =     0.00017968   -0.00016507    0.00026966
     atom   56 type  1   force =     0.00025932   -0.00013778   -0.00019965
     atom   57 type  1   force =    -0.00001608    0.00012801   -0.00002788
     atom   58 type  1   force =     0.00007131   -0.00004840   -0.00001762
     atom   59 type  1   force =     0.00029622   -0.00004883   -0.00003720
     atom   60 type  1   force =     0.00002014    0.00010856   -0.00004112
     atom   61 type  1   force =     0.00405004    0.00224895   -0.00236830
     atom   62 type  1   force =     0.00021906    0.00026517    0.00007144
     atom   63 type  1   force =     0.00017968    0.00026966   -0.00016507
     atom   64 type  1   force =     0.00025932   -0.00019965   -0.00013778

     Total force =     0.027202     Total SCF correction =     0.000043

     Writing output data file pwscf.save
 
     init_run     :      7.35s CPU      7.66s WALL (       1 calls)
     electrons    :    227.63s CPU    240.29s WALL (       1 calls)
     forces       :      3.90s CPU      4.01s WALL (       1 calls)

     Called by init_run:
     wfcinit      :      6.61s CPU      6.78s WALL (       1 calls)
     potinit      :      0.27s CPU      0.27s WALL (       1 calls)

     Called by electrons:
     c_bands      :    199.28s CPU    210.71s WALL (      13 calls)
     sum_band     :     23.23s CPU     24.03s WALL (      13 calls)
     v_of_rho     :      0.95s CPU      0.96s WALL (      13 calls)
     newd         :      1.65s CPU      1.75s WALL (      13 calls)
     PAW_pot      :      2.20s CPU      2.20s WALL (      13 calls)
     mix_rho      :      0.51s CPU      0.53s WALL (      13 calls)

     Called by c_bands:
     init_us_2    :      3.67s CPU      3.74s WALL (      84 calls)
     cegterg      :    186.37s CPU    191.82s WALL (      39 calls)

     Called by sum_band:
     sum_band:bec :      0.03s CPU      0.03s WALL (      39 calls)
     addusdens    :      1.72s CPU      1.95s WALL (      13 calls)

     Called by *egterg:
     h_psi        :     87.36s CPU     87.80s WALL (     174 calls)
     s_psi        :     22.10s CPU     22.13s WALL (     174 calls)
     g_psi        :      0.83s CPU      0.84s WALL (     132 calls)
     cdiaghg      :     24.57s CPU     24.64s WALL (     168 calls)

     Called by h_psi:
     add_vuspsi   :     22.81s CPU     22.87s WALL (     174 calls)

     General routines
     calbec       :     35.04s CPU     35.25s WALL (     225 calls)
     fft          :      0.46s CPU      0.46s WALL (     182 calls)
     fftw         :     44.34s CPU     44.66s WALL (   39868 calls)
     davcio       :      0.00s CPU      0.05s WALL (       3 calls)
 
     Parallel routines
     fft_scatter  :     16.00s CPU     15.57s WALL (   40050 calls)
 
     PWSCF        :  3m59.26s CPU     4m23.35s WALL

 
   This run was terminated on:  13:50: 6   3Feb2016            

=------------------------------------------------------------------------------=
   JOB DONE.
=------------------------------------------------------------------------------=
