<?xml version="1.0" encoding="ISO-8859-1"?>
<modeling>
 <generator>
  <i name="program" type="string">vasp </i>
  <i name="version" type="string">5.4.1  </i>
  <i name="subversion" type="string">05Feb16 (build Mar 26 2016 11:58:25) complex                          parallel </i>
  <i name="platform" type="string">IFC91_ompi </i>
  <i name="date" type="string">2017 03 12 </i>
  <i name="time" type="string">12:13:56 </i>
 </generator>
 <incar>
  <i type="string" name="PREC">accurate</i>
  <i type="int" name="IALGO">    38</i>
  <i type="logical" name="ADDGRID"> T  </i>
  <i type="int" name="NELMIN">     5</i>
  <i type="int" name="IBRION">    -1</i>
  <i name="EDIFF">      0.00000001</i>
  <i name="ENCUT">    300.00000000</i>
  <i type="logical" name="LREAL"> F  </i>
  <i type="int" name="ISMEAR">     0</i>
  <i name="SIGMA">      0.05000000</i>
  <i type="logical" name="LWAVE"> F  </i>
  <i type="logical" name="LCHARG"> F  </i>
  <v type="int" name="KPOINT_BSE">    -1     0     0     0</v>
 </incar>
 <kpoints>
  <generation param="Monkhorst-Pack">
   <v type="int" name="divisions">       2        2        2 </v>
   <v name="usershift">      0.00000000       0.00000000       0.00000000 </v>
   <v name="genvec1">      0.50000000       0.00000000       0.00000000 </v>
   <v name="genvec2">      0.00000000       0.50000000       0.00000000 </v>
   <v name="genvec3">      0.00000000       0.00000000       0.50000000 </v>
   <v name="shift">      0.50000000       0.50000000       0.50000000 </v>
  </generation>
  <varray name="kpointlist" >
   <v>       0.25000000       0.25000000       0.25000000 </v>
   <v>      -0.25000000       0.25000000       0.25000000 </v>
   <v>       0.25000000      -0.25000000       0.25000000 </v>
   <v>      -0.25000000      -0.25000000       0.25000000 </v>
  </varray>
  <varray name="weights" >
   <v>       0.25000000 </v>
   <v>       0.25000000 </v>
   <v>       0.25000000 </v>
   <v>       0.25000000 </v>
  </varray>
 </kpoints>
 <parameters>
  <separator name="general" >
   <i type="string" name="SYSTEM">unknown system</i>
   <i type="logical" name="LCOMPAT"> F  </i>
  </separator>
  <separator name="electronic" >
   <i type="string" name="PREC">accura</i>
   <i name="ENMAX">    300.00000000</i>
   <i name="ENAUG">    322.06900000</i>
   <i name="EDIFF">      0.00000001</i>
   <i type="int" name="IALGO">    38</i>
   <i type="int" name="IWAVPR">    10</i>
   <i type="int" name="NBANDS">   164</i>
   <i name="NELECT">    256.00000000</i>
   <i type="int" name="TURBO">     0</i>
   <i type="int" name="IRESTART">     0</i>
   <i type="int" name="NREBOOT">     0</i>
   <i type="int" name="NMIN">     0</i>
   <i name="EREF">      0.00000000</i>
   <separator name="electronic smearing" >
    <i type="int" name="ISMEAR">     0</i>
    <i name="SIGMA">      0.05000000</i>
    <i name="KSPACING">      0.50000000</i>
    <i type="logical" name="KGAMMA"> T  </i>
   </separator>
   <separator name="electronic projectors" >
    <i type="logical" name="LREAL"> F  </i>
    <v name="ROPT">      0.00000000</v>
    <i type="int" name="LMAXPAW">  -100</i>
    <i type="int" name="LMAXMIX">     2</i>
    <i type="logical" name="NLSPLINE"> F  </i>
   </separator>
   <separator name="electronic startup" >
    <i type="int" name="ISTART">     0</i>
    <i type="int" name="ICHARG">     2</i>
    <i type="int" name="INIWAV">     1</i>
   </separator>
   <separator name="electronic spin" >
    <i type="int" name="ISPIN">     1</i>
    <i type="logical" name="LNONCOLLINEAR"> F  </i>
    <v name="MAGMOM">      1.00000000      1.00000000      1.00000000      1.00000000      1.00000000      1.00000000      1.00000000      1.00000000      1.00000000      1.00000000      1.00000000      1.00000000      1.00000000      1.00000000      1.00000000      1.00000000      1.00000000      1.00000000      1.00000000      1.00000000
      1.00000000      1.00000000      1.00000000      1.00000000      1.00000000      1.00000000      1.00000000      1.00000000      1.00000000      1.00000000      1.00000000      1.00000000      1.00000000      1.00000000      1.00000000      1.00000000      1.00000000      1.00000000      1.00000000      1.00000000
      1.00000000      1.00000000      1.00000000      1.00000000      1.00000000      1.00000000      1.00000000      1.00000000      1.00000000      1.00000000      1.00000000      1.00000000      1.00000000      1.00000000      1.00000000      1.00000000      1.00000000      1.00000000      1.00000000      1.00000000
      1.00000000      1.00000000      1.00000000      1.00000000</v>
    <i name="NUPDOWN">     -1.00000000</i>
    <i type="logical" name="LSORBIT"> F  </i>
    <v name="SAXIS">      0.00000000      0.00000000      1.00000000</v>
    <i type="logical" name="LSPIRAL"> F  </i>
    <v name="QSPIRAL">      0.00000000      0.00000000      0.00000000</v>
    <i type="logical" name="LZEROZ"> F  </i>
   </separator>
   <separator name="electronic exchange-correlation" >
    <i type="logical" name="LASPH"> F  </i>
    <i type="logical" name="LMETAGGA"> F  </i>
   </separator>
   <separator name="electronic convergence" >
    <i type="int" name="NELM">    60</i>
    <i type="int" name="NELMDL">    -5</i>
    <i type="int" name="NELMIN">     5</i>
    <i name="ENINI">    300.00000000</i>
    <separator name="electronic convergence detail" >
     <i type="logical" name="LDIAG"> T  </i>
     <i type="logical" name="LSUBROT"> F  </i>
     <i name="WEIMIN">      0.00000000</i>
     <i name="EBREAK">      0.00000000</i>
     <i name="DEPER">      0.30000000</i>
     <i type="int" name="NRMM">     4</i>
     <i name="TIME">      0.40000000</i>
    </separator>
   </separator>
   <separator name="electronic mixer" >
    <i name="AMIX">      0.40000000</i>
    <i name="BMIX">      1.00000000</i>
    <i name="AMIN">      0.10000000</i>
    <i name="AMIX_MAG">      1.60000000</i>
    <i name="BMIX_MAG">      1.00000000</i>
    <separator name="electronic mixer details" >
     <i type="int" name="IMIX">     4</i>
     <i type="logical" name="MIXFIRST"> F  </i>
     <i type="int" name="MAXMIX">   -45</i>
     <i name="WC">    100.00000000</i>
     <i type="int" name="INIMIX">     1</i>
     <i type="int" name="MIXPRE">     1</i>
     <i type="int" name="MREMOVE">     5</i>
    </separator>
   </separator>
   <separator name="electronic dipolcorrection" >
    <i type="logical" name="LDIPOL"> F  </i>
    <i type="logical" name="LMONO"> F  </i>
    <i type="int" name="IDIPOL">     0</i>
    <i name="EPSILON">      1.00000000</i>
    <v name="DIPOL">   -100.00000000   -100.00000000   -100.00000000</v>
    <i name="EFIELD">      0.00000000</i>
   </separator>
  </separator>
  <separator name="grids" >
   <i type="int" name="NGX">    64</i>
   <i type="int" name="NGY">    64</i>
   <i type="int" name="NGZ">    64</i>
   <i type="int" name="NGXF">   128</i>
   <i type="int" name="NGYF">   128</i>
   <i type="int" name="NGZF">   128</i>
   <i type="logical" name="ADDGRID"> T  </i>
  </separator>
  <separator name="ionic" >
   <i type="int" name="NSW">     0</i>
   <i type="int" name="IBRION">    -1</i>
   <i type="int" name="ISIF">     2</i>
   <i name="PSTRESS">      0.00000000</i>
   <i name="EDIFFG">      0.00000010</i>
   <i type="int" name="NFREE">     0</i>
   <i name="POTIM">      0.50000000</i>
   <i name="SMASS">     -3.00000000</i>
   <i name="SCALEE">      1.00000000</i>
  </separator>
  <separator name="ionic md" >
   <i name="TEBEG">      0.00010000</i>
   <i name="TEEND">      0.00010000</i>
   <i type="int" name="NBLOCK">     1</i>
   <i type="int" name="KBLOCK">     1</i>
   <i type="int" name="NPACO">   256</i>
   <i name="APACO">     16.00000000</i>
  </separator>
  <separator name="symmetry" >
   <i type="int" name="ISYM">     2</i>
   <i name="SYMPREC">      0.00001000</i>
  </separator>
  <separator name="dos" >
   <i type="logical" name="LORBIT"> F  </i>
   <v name="RWIGS">     -1.00000000</v>
   <i type="int" name="NEDOS">   301</i>
   <i name="EMIN">     10.00000000</i>
   <i name="EMAX">    -10.00000000</i>
   <i name="EFERMI">      0.00000000</i>
  </separator>
  <separator name="writing" >
   <i type="int" name="NWRITE">     2</i>
   <i type="logical" name="LWAVE"> F  </i>
   <i type="logical" name="LCHARG"> F  </i>
   <i type="logical" name="LPARD"> F  </i>
   <i type="logical" name="LVTOT"> F  </i>
   <i type="logical" name="LVHAR"> F  </i>
   <i type="logical" name="LELF"> F  </i>
   <i type="logical" name="LOPTICS"> F  </i>
   <v name="STM">      0.00000000      0.00000000      0.00000000      0.00000000      0.00000000      0.00000000      0.00000000</v>
  </separator>
  <separator name="performance" >
   <i type="int" name="NPAR">     4</i>
   <i type="int" name="NSIM">     4</i>
   <i type="int" name="NBLK">    -1</i>
   <i type="logical" name="LPLANE"> T  </i>
   <i type="logical" name="LSCALAPACK"> T  </i>
   <i type="logical" name="LSCAAWARE"> F  </i>
   <i type="logical" name="LSCALU"> F  </i>
   <i type="logical" name="LASYNC"> F  </i>
   <i type="logical" name="LORBITALREAL"> F  </i>
  </separator>
  <separator name="miscellaneous" >
   <i type="int" name="IDIOT">     3</i>
   <i type="logical" name="LMUSIC"> F  </i>
   <v name="POMASS">     28.08500000</v>
   <v name="DARWINR">      0.00000000</v>
   <v name="DARWINV">      1.00000000</v>
   <i type="logical" name="LCORR"> T  </i>
  </separator>
  <i type="logical" name="GGA_COMPAT"> T  </i>
  <i type="logical" name="LBERRY"> F  </i>
  <i type="int" name="ICORELEVEL">     0</i>
  <i type="logical" name="LDAU"> F  </i>
  <i type="int" name="I_CONSTRAINED_M">     0</i>
  <separator name="electronic exchange-correlation" >
   <i type="string" name="GGA">--</i>
   <i type="int" name="VOSKOWN">     0</i>
   <i type="logical" name="LHFCALC"> F  </i>
   <i type="string" name="PRECFOCK"></i>
   <i type="logical" name="LSYMGRAD"> F  </i>
   <i type="logical" name="LHFONE"> F  </i>
   <i type="logical" name="LRHFCALC"> F  </i>
   <i type="logical" name="LTHOMAS"> F  </i>
   <i type="logical" name="LMODELHF"> F  </i>
   <i name="ENCUT4O">     -1.00000000</i>
   <i type="int" name="EXXOEP">     0</i>
   <i type="int" name="FOURORBIT">     0</i>
   <i name="AEXX">      0.00000000</i>
   <i name="HFALPHA">      0.00000000</i>
   <i name="MCALPHA">      0.00000000</i>
   <i name="ALDAX">      1.00000000</i>
   <i name="AGGAX">      1.00000000</i>
   <i name="ALDAC">      1.00000000</i>
   <i name="AGGAC">      1.00000000</i>
   <i type="int" name="NKREDX">     1</i>
   <i type="int" name="NKREDY">     1</i>
   <i type="int" name="NKREDZ">     1</i>
   <i type="logical" name="SHIFTRED"> F  </i>
   <i type="logical" name="ODDONLY"> F  </i>
   <i type="logical" name="EVENONLY"> F  </i>
   <i type="int" name="LMAXFOCK">     0</i>
   <i type="int" name="NMAXFOCKAE">     0</i>
   <i type="logical" name="LFOCKAEDFT"> F  </i>
   <i name="HFSCREEN">      0.00000000</i>
   <i name="HFSCREENC">      0.00000000</i>
   <i type="int" name="NBANDSGWLOW">     0</i>
  </separator>
  <separator name="vdW DFT" >
   <i type="logical" name="LUSE_VDW"> F  </i>
   <i name="Zab_VDW">     -0.84910000</i>
   <i name="PARAM1">      0.12340000</i>
   <i name="PARAM2">      1.00000000</i>
   <i name="PARAM3">      0.00000000</i>
  </separator>
  <separator name="model GW" >
   <i type="int" name="MODEL_GW">     0</i>
   <i name="MODEL_EPS0">     12.24990743</i>
   <i name="MODEL_ALPHA">      1.00000000</i>
  </separator>
  <separator name="linear response parameters" >
   <i type="logical" name="LEPSILON"> F  </i>
   <i type="logical" name="LRPA"> F  </i>
   <i type="logical" name="LNABLA"> F  </i>
   <i type="logical" name="LVEL"> F  </i>
   <i type="int" name="KINTER">     0</i>
   <i name="CSHIFT">      0.10000000</i>
   <i name="OMEGAMAX">     -1.00000000</i>
   <i name="DEG_THRESHOLD">      0.00200000</i>
  </separator>
  <separator name="orbital magnetization" >
   <i type="logical" name="NUCIND"> F  </i>
   <v name="MAGPOS">      0.00000000      0.00000000      0.00000000</v>
   <i type="logical" name="LNICSALL"> T  </i>
   <i type="logical" name="ORBITALMAG"> F  </i>
   <i type="logical" name="LMAGBLOCH"> F  </i>
   <i type="logical" name="LCHIMAG"> F  </i>
   <i type="logical" name="LGAUGE"> T  </i>
   <i type="int" name="MAGATOM">     0</i>
   <v name="MAGDIPOL">      0.00000000      0.00000000      0.00000000</v>
   <v name="AVECCONST">      0.00000000      0.00000000      0.00000000</v>
  </separator>
  <separator name="response functions" >
   <i type="logical" name="LADDER"> F  </i>
   <i type="logical" name="LFXC"> F  </i>
   <i type="logical" name="LHARTREE"> T  </i>
   <i type="int" name="IBSE">     0</i>
   <v type="int" name="KPOINT">    -1     0     0     0</v>
   <i type="logical" name="LTCTE"> F  </i>
   <i type="logical" name="LTETE"> F  </i>
   <i type="logical" name="LTRIPLET"> F  </i>
   <i type="logical" name="LFXCEPS"> F  </i>
   <i type="logical" name="LFXHEG"> F  </i>
   <i type="int" name="NATURALO">     0</i>
   <i type="logical" name="L2ORDER"> F  </i>
   <i type="logical" name="LUSEW"> F  </i>
   <i name="ENCUTGW">     -2.00000000</i>
   <i name="ENCUTGWSOFT">     -2.00000000</i>
   <i name="ENCUTLF">     -1.00000000</i>
   <i type="int" name="LMAXMP2">    -1</i>
   <i name="SCISSOR">      0.00000000</i>
   <i type="int" name="NOMEGA">     0</i>
   <i type="int" name="NOMEGAR">     0</i>
   <i type="int" name="NBANDSGW">    -1</i>
   <i type="int" name="NBANDSO">    -1</i>
   <i type="int" name="NBANDSV">    -1</i>
   <i type="int" name="NELM">     1</i>
   <i type="int" name="NELMHF">     1</i>
   <i type="int" name="DIM">     3</i>
   <i type="int" name="ANTIRES">     0</i>
   <i name="OMEGAMAX">    -30.00000000</i>
   <i name="OMEGAMIN">    -30.00000000</i>
   <i name="OMEGATL">   -200.00000000</i>
   <i type="int" name="OMEGAGRID">     0</i>
   <i name="CSHIFT">     -0.10000000</i>
   <i type="logical" name="SELFENERGY"> F  </i>
   <i type="logical" name="LSPECTRAL"> F  </i>
   <i type="logical" name="LSPECTRALGW"> F  </i>
   <i type="logical" name="LSINGLES"> F  </i>
   <i type="logical" name="LFERMIGW"> F  </i>
   <i type="logical" name="ODDONLYGW"> F  </i>
   <i type="logical" name="EVENONLYGW"> F  </i>
   <i type="int" name="NKREDLFX">     1</i>
   <i type="int" name="NKREDLFY">     1</i>
   <i type="int" name="NKREDLFZ">     1</i>
   <i type="int" name="MAXMEM">  1800</i>
   <i type="int" name="TELESCOPE">     0</i>
   <i type="int" name="TAUPAR">     1</i>
   <i type="int" name="OMEGAPAR">    -1</i>
   <i name="LAMBDA">      1.00000000</i>
  </separator>
  <separator name="External order field" >
   <i name="OFIELD_KAPPA">      0.00000000</i>
   <v name="OFIELD_K">      0.00000000      0.00000000      0.00000000</v>
   <i name="OFIELD_Q6_NEAR">      0.00000000</i>
   <i name="OFIELD_Q6_FAR">      0.00000000</i>
   <i name="OFIELD_A">      0.00000000</i>
  </separator>
 </parameters>
 <atominfo>
  <atoms>      64 </atoms>
  <types>       1 </types>
  <array name="atoms" >
   <dimension dim="1">ion</dimension>
   <field type="string">element</field>
   <field type="int">atomtype</field>
   <set>
    <rc><c>Si</c><c>   1</c></rc>
    <rc><c>Si</c><c>   1</c></rc>
    <rc><c>Si</c><c>   1</c></rc>
    <rc><c>Si</c><c>   1</c></rc>
    <rc><c>Si</c><c>   1</c></rc>
    <rc><c>Si</c><c>   1</c></rc>
    <rc><c>Si</c><c>   1</c></rc>
    <rc><c>Si</c><c>   1</c></rc>
    <rc><c>Si</c><c>   1</c></rc>
    <rc><c>Si</c><c>   1</c></rc>
    <rc><c>Si</c><c>   1</c></rc>
    <rc><c>Si</c><c>   1</c></rc>
    <rc><c>Si</c><c>   1</c></rc>
    <rc><c>Si</c><c>   1</c></rc>
    <rc><c>Si</c><c>   1</c></rc>
    <rc><c>Si</c><c>   1</c></rc>
    <rc><c>Si</c><c>   1</c></rc>
    <rc><c>Si</c><c>   1</c></rc>
    <rc><c>Si</c><c>   1</c></rc>
    <rc><c>Si</c><c>   1</c></rc>
    <rc><c>Si</c><c>   1</c></rc>
    <rc><c>Si</c><c>   1</c></rc>
    <rc><c>Si</c><c>   1</c></rc>
    <rc><c>Si</c><c>   1</c></rc>
    <rc><c>Si</c><c>   1</c></rc>
    <rc><c>Si</c><c>   1</c></rc>
    <rc><c>Si</c><c>   1</c></rc>
    <rc><c>Si</c><c>   1</c></rc>
    <rc><c>Si</c><c>   1</c></rc>
    <rc><c>Si</c><c>   1</c></rc>
    <rc><c>Si</c><c>   1</c></rc>
    <rc><c>Si</c><c>   1</c></rc>
    <rc><c>Si</c><c>   1</c></rc>
    <rc><c>Si</c><c>   1</c></rc>
    <rc><c>Si</c><c>   1</c></rc>
    <rc><c>Si</c><c>   1</c></rc>
    <rc><c>Si</c><c>   1</c></rc>
    <rc><c>Si</c><c>   1</c></rc>
    <rc><c>Si</c><c>   1</c></rc>
    <rc><c>Si</c><c>   1</c></rc>
    <rc><c>Si</c><c>   1</c></rc>
    <rc><c>Si</c><c>   1</c></rc>
    <rc><c>Si</c><c>   1</c></rc>
    <rc><c>Si</c><c>   1</c></rc>
    <rc><c>Si</c><c>   1</c></rc>
    <rc><c>Si</c><c>   1</c></rc>
    <rc><c>Si</c><c>   1</c></rc>
    <rc><c>Si</c><c>   1</c></rc>
    <rc><c>Si</c><c>   1</c></rc>
    <rc><c>Si</c><c>   1</c></rc>
    <rc><c>Si</c><c>   1</c></rc>
    <rc><c>Si</c><c>   1</c></rc>
    <rc><c>Si</c><c>   1</c></rc>
    <rc><c>Si</c><c>   1</c></rc>
    <rc><c>Si</c><c>   1</c></rc>
    <rc><c>Si</c><c>   1</c></rc>
    <rc><c>Si</c><c>   1</c></rc>
    <rc><c>Si</c><c>   1</c></rc>
    <rc><c>Si</c><c>   1</c></rc>
    <rc><c>Si</c><c>   1</c></rc>
    <rc><c>Si</c><c>   1</c></rc>
    <rc><c>Si</c><c>   1</c></rc>
    <rc><c>Si</c><c>   1</c></rc>
    <rc><c>Si</c><c>   1</c></rc>
   </set>
  </array>
  <array name="atomtypes" >
   <dimension dim="1">type</dimension>
   <field type="int">atomspertype</field>
   <field type="string">element</field>
   <field>mass</field>
   <field>valence</field>
   <field type="string">pseudopotential</field>
   <set>
    <rc><c>  64</c><c>Si</c><c>     28.08500000</c><c>      4.00000000</c><c>  PAW_PBE Si 05Jan2001                  </c></rc>
   </set>
  </array>
 </atominfo>
 <structure name="initialpos" >
  <crystal>
   <varray name="basis" >
    <v>      10.93252578       0.00000000       0.00000000 </v>
    <v>       0.00000000      10.93252578       0.00000000 </v>
    <v>       0.00000000       0.00000000      10.93252578 </v>
   </varray>
   <i name="volume">   1306.65679237 </i>
   <varray name="rec_basis" >
    <v>       0.09147017       0.00000000       0.00000000 </v>
    <v>       0.00000000       0.09147017       0.00000000 </v>
    <v>       0.00000000       0.00000000       0.09147017 </v>
   </varray>
  </crystal>
  <varray name="positions" >
   <v>       0.44024411       0.43750000       0.43750000 </v>
   <v>       0.93750000       0.43750000       0.43750000 </v>
   <v>       0.43750000       0.93750000       0.43750000 </v>
   <v>       0.93750000       0.93750000       0.43750000 </v>
   <v>       0.43750000       0.43750000       0.93750000 </v>
   <v>       0.93750000       0.43750000       0.93750000 </v>
   <v>       0.43750000       0.93750000       0.93750000 </v>
   <v>       0.93750000       0.93750000       0.93750000 </v>
   <v>       0.43750000       0.18750000       0.18750000 </v>
   <v>       0.93750000       0.18750000       0.18750000 </v>
   <v>       0.43750000       0.68750000       0.18750000 </v>
   <v>       0.93750000       0.68750000       0.18750000 </v>
   <v>       0.43750000       0.18750000       0.68750000 </v>
   <v>       0.93750000       0.18750000       0.68750000 </v>
   <v>       0.43750000       0.68750000       0.68750000 </v>
   <v>       0.93750000       0.68750000       0.68750000 </v>
   <v>       0.18750000       0.43750000       0.18750000 </v>
   <v>       0.68750000       0.43750000       0.18750000 </v>
   <v>       0.18750000       0.93750000       0.19024411 </v>
   <v>       0.68750000       0.93750000       0.18750000 </v>
   <v>       0.18750000       0.43750000       0.68750000 </v>
   <v>       0.68750000       0.43750000       0.68750000 </v>
   <v>       0.18750000       0.93750000       0.68750000 </v>
   <v>       0.68750000       0.93750000       0.68750000 </v>
   <v>       0.18750000       0.18750000       0.43750000 </v>
   <v>       0.68750000       0.18750000       0.43750000 </v>
   <v>       0.18750000       0.68750000       0.43750000 </v>
   <v>       0.68750000       0.68750000       0.43750000 </v>
   <v>       0.18750000       0.18750000       0.93750000 </v>
   <v>       0.68750000       0.18750000       0.93750000 </v>
   <v>       0.18750000       0.68750000       0.93750000 </v>
   <v>       0.68750000       0.68750000       0.93750000 </v>
   <v>       0.06250000       0.06250000       0.06250000 </v>
   <v>       0.56250000       0.06250000       0.06250000 </v>
   <v>       0.06250000       0.56250000       0.06250000 </v>
   <v>       0.56250000       0.56250000       0.06250000 </v>
   <v>       0.06250000       0.06250000       0.56250000 </v>
   <v>       0.56250000       0.06250000       0.56250000 </v>
   <v>       0.06250000       0.56250000       0.56250000 </v>
   <v>       0.56250000       0.56250000       0.56250000 </v>
   <v>       0.06250000       0.31250000       0.31250000 </v>
   <v>       0.56250000       0.31250000       0.31250000 </v>
   <v>       0.06250000       0.81250000       0.31250000 </v>
   <v>       0.56250000       0.81250000       0.31250000 </v>
   <v>       0.06250000       0.31250000       0.81250000 </v>
   <v>       0.56250000       0.31250000       0.81250000 </v>
   <v>       0.06250000       0.81250000       0.81250000 </v>
   <v>       0.56250000       0.81250000       0.81250000 </v>
   <v>       0.31250000       0.06250000       0.31250000 </v>
   <v>       0.81250000       0.06250000       0.31250000 </v>
   <v>       0.31250000       0.56250000       0.31250000 </v>
   <v>       0.81250000       0.56250000       0.31250000 </v>
   <v>       0.31250000       0.06250000       0.81250000 </v>
   <v>       0.81250000       0.06250000       0.81250000 </v>
   <v>       0.31250000       0.56250000       0.81250000 </v>
   <v>       0.81250000       0.56250000       0.81250000 </v>
   <v>       0.31250000       0.31250000       0.06250000 </v>
   <v>       0.81250000       0.31250000       0.06250000 </v>
   <v>       0.31250000       0.81250000       0.06250000 </v>
   <v>       0.81250000       0.81250000       0.06250000 </v>
   <v>       0.31250000       0.31250000       0.56250000 </v>
   <v>       0.81250000       0.31250000       0.56250000 </v>
   <v>       0.31250000       0.81250000       0.56250000 </v>
   <v>       0.81250000       0.81250000       0.56250000 </v>
  </varray>
 </structure>
 <calculation>
  <scstep>
   <time name="dav">    4.63    4.68</time>
   <time name="total">    4.83    4.91</time>
   <energy>
    <i name="alphaZ">    105.52440745 </i>
    <i name="ewald">  -7265.47165054 </i>
    <i name="hartreedc">   -361.71199618 </i>
    <i name="XCdc">   -597.75714173 </i>
    <i name="pawpsdc">   5639.92317535 </i>
    <i name="pawaedc">  -4513.95313856 </i>
    <i name="eentropy">     -0.00114402 </i>
    <i name="bandstr">    856.88352406 </i>
    <i name="atom">   6596.14994790 </i>
    <i name="e_fr_energy">    459.58598374 </i>
    <i name="e_wo_entrp">    459.58712776 </i>
    <i name="e_0_energy">    459.58655575 </i>
   </energy>
  </scstep>
  <scstep>
   <time name="dav">    5.06    5.47</time>
   <time name="total">    5.06    5.48</time>
   <energy>
    <i name="e_fr_energy">   -300.07684175 </i>
    <i name="e_wo_entrp">   -300.07684175 </i>
    <i name="e_0_energy">   -300.07684175 </i>
   </energy>
  </scstep>
  <scstep>
   <time name="dav">    5.12    5.53</time>
   <time name="total">    5.12    5.53</time>
   <energy>
    <i name="e_fr_energy">   -351.03315469 </i>
    <i name="e_wo_entrp">   -351.03315469 </i>
    <i name="e_0_energy">   -351.03315469 </i>
   </energy>
  </scstep>
  <scstep>
   <time name="dav">    5.10    5.52</time>
   <time name="total">    5.10    5.53</time>
   <energy>
    <i name="e_fr_energy">   -352.27235176 </i>
    <i name="e_wo_entrp">   -352.27235176 </i>
    <i name="e_0_energy">   -352.27235176 </i>
   </energy>
  </scstep>
  <scstep>
   <time name="dav">    5.04    5.45</time>
   <time name="total">    5.29    5.73</time>
   <energy>
    <i name="e_fr_energy">   -352.31320245 </i>
    <i name="e_wo_entrp">   -352.31320245 </i>
    <i name="e_0_energy">   -352.31320245 </i>
   </energy>
  </scstep>
  <scstep>
   <time name="dav">    4.96    5.37</time>
   <time name="total">    5.42    5.87</time>
   <energy>
    <i name="e_fr_energy">   -348.58457362 </i>
    <i name="e_wo_entrp">   -348.58457362 </i>
    <i name="e_0_energy">   -348.58457362 </i>
   </energy>
  </scstep>
  <scstep>
   <time name="dav">    5.08    5.19</time>
   <time name="total">    5.53    5.68</time>
   <energy>
    <i name="e_fr_energy">   -346.87179005 </i>
    <i name="e_wo_entrp">   -346.87179005 </i>
    <i name="e_0_energy">   -346.87179005 </i>
   </energy>
  </scstep>
  <scstep>
   <time name="dav">    5.03    5.43</time>
   <time name="total">    5.46    5.91</time>
   <energy>
    <i name="e_fr_energy">   -346.89811603 </i>
    <i name="e_wo_entrp">   -346.89811603 </i>
    <i name="e_0_energy">   -346.89811603 </i>
   </energy>
  </scstep>
  <scstep>
   <time name="dav">    5.10    5.52</time>
   <time name="total">    5.54    5.99</time>
   <energy>
    <i name="e_fr_energy">   -346.90480358 </i>
    <i name="e_wo_entrp">   -346.90480358 </i>
    <i name="e_0_energy">   -346.90480358 </i>
   </energy>
  </scstep>
  <scstep>
   <time name="dav">    4.79    5.17</time>
   <time name="total">    5.22    5.66</time>
   <energy>
    <i name="e_fr_energy">   -346.90686540 </i>
    <i name="e_wo_entrp">   -346.90686540 </i>
    <i name="e_0_energy">   -346.90686540 </i>
   </energy>
  </scstep>
  <scstep>
   <time name="dav">    5.03    5.43</time>
   <time name="total">    5.47    5.98</time>
   <energy>
    <i name="e_fr_energy">   -346.90684222 </i>
    <i name="e_wo_entrp">   -346.90684222 </i>
    <i name="e_0_energy">   -346.90684222 </i>
   </energy>
  </scstep>
  <scstep>
   <time name="dav">    5.32    5.32</time>
   <time name="total">    5.83    5.84</time>
   <energy>
    <i name="e_fr_energy">   -346.90685690 </i>
    <i name="e_wo_entrp">   -346.90685690 </i>
    <i name="e_0_energy">   -346.90685690 </i>
   </energy>
  </scstep>
  <scstep>
   <time name="dav">    4.93    5.32</time>
   <time name="total">    5.36    5.81</time>
   <energy>
    <i name="e_fr_energy">   -346.90685745 </i>
    <i name="e_wo_entrp">   -346.90685745 </i>
    <i name="e_0_energy">   -346.90685745 </i>
   </energy>
  </scstep>
  <scstep>
   <time name="dav">    5.14    5.56</time>
   <time name="total">    5.58    6.04</time>
   <energy>
    <i name="e_fr_energy">   -346.90685803 </i>
    <i name="e_wo_entrp">   -346.90685803 </i>
    <i name="e_0_energy">   -346.90685803 </i>
   </energy>
  </scstep>
  <scstep>
   <time name="dav">    4.04    4.37</time>
   <time name="total">    4.48    4.88</time>
   <energy>
    <i name="e_fr_energy">   -346.90685780 </i>
    <i name="e_wo_entrp">   -346.90685780 </i>
    <i name="e_0_energy">   -346.90685780 </i>
   </energy>
  </scstep>
  <scstep>
   <time name="dav">    3.40    3.67</time>
   <time name="total">    3.83    4.15</time>
   <energy>
    <i name="e_fr_energy">   -346.90685786 </i>
    <i name="e_wo_entrp">   -346.90685786 </i>
    <i name="e_0_energy">   -346.90685786 </i>
   </energy>
  </scstep>
  <scstep>
   <time name="dav">    3.39    3.67</time>
   <time name="total">    3.83    4.15</time>
   <energy>
    <i name="e_fr_energy">   -346.90685784 </i>
    <i name="e_wo_entrp">   -346.90685784 </i>
    <i name="e_0_energy">   -346.90685784 </i>
   </energy>
  </scstep>
  <scstep>
   <time name="dav">    3.39    3.67</time>
   <time name="total">    3.83    4.14</time>
   <energy>
    <i name="e_fr_energy">   -346.90685785 </i>
    <i name="e_wo_entrp">   -346.90685785 </i>
    <i name="e_0_energy">   -346.90685785 </i>
   </energy>
  </scstep>
  <scstep>
   <time name="dav">    3.39    3.67</time>
   <time name="total">    3.58    3.87</time>
   <energy>
    <i name="alphaZ">    105.52440745 </i>
    <i name="ewald">  -7265.47165054 </i>
    <i name="hartreedc">   -485.14272473 </i>
    <i name="XCdc">   -577.61229190 </i>
    <i name="pawpsdc">  27883.42994977 </i>
    <i name="pawaedc"> -26764.14787679 </i>
    <i name="eentropy">      0.00000000 </i>
    <i name="bandstr">    160.36338097 </i>
    <i name="atom">   6596.14994790 </i>
    <i name="e_fr_energy">   -346.90685786 </i>
    <i name="e_wo_entrp">   -346.90685786 </i>
    <i name="e_0_energy">   -346.90685786 </i>
   </energy>
  </scstep>
  <structure>
   <crystal>
    <varray name="basis" >
     <v>      10.93252578       0.00000000       0.00000000 </v>
     <v>       0.00000000      10.93252578       0.00000000 </v>
     <v>       0.00000000       0.00000000      10.93252578 </v>
    </varray>
    <i name="volume">   1306.65679237 </i>
    <varray name="rec_basis" >
     <v>       0.09147017       0.00000000       0.00000000 </v>
     <v>       0.00000000       0.09147017       0.00000000 </v>
     <v>       0.00000000       0.00000000       0.09147017 </v>
    </varray>
   </crystal>
   <varray name="positions" >
    <v>       0.44024411       0.43750000       0.43750000 </v>
    <v>       0.93750000       0.43750000       0.43750000 </v>
    <v>       0.43750000       0.93750000       0.43750000 </v>
    <v>       0.93750000       0.93750000       0.43750000 </v>
    <v>       0.43750000       0.43750000       0.93750000 </v>
    <v>       0.93750000       0.43750000       0.93750000 </v>
    <v>       0.43750000       0.93750000       0.93750000 </v>
    <v>       0.93750000       0.93750000       0.93750000 </v>
    <v>       0.43750000       0.18750000       0.18750000 </v>
    <v>       0.93750000       0.18750000       0.18750000 </v>
    <v>       0.43750000       0.68750000       0.18750000 </v>
    <v>       0.93750000       0.68750000       0.18750000 </v>
    <v>       0.43750000       0.18750000       0.68750000 </v>
    <v>       0.93750000       0.18750000       0.68750000 </v>
    <v>       0.43750000       0.68750000       0.68750000 </v>
    <v>       0.93750000       0.68750000       0.68750000 </v>
    <v>       0.18750000       0.43750000       0.18750000 </v>
    <v>       0.68750000       0.43750000       0.18750000 </v>
    <v>       0.18750000       0.93750000       0.19024411 </v>
    <v>       0.68750000       0.93750000       0.18750000 </v>
    <v>       0.18750000       0.43750000       0.68750000 </v>
    <v>       0.68750000       0.43750000       0.68750000 </v>
    <v>       0.18750000       0.93750000       0.68750000 </v>
    <v>       0.68750000       0.93750000       0.68750000 </v>
    <v>       0.18750000       0.18750000       0.43750000 </v>
    <v>       0.68750000       0.18750000       0.43750000 </v>
    <v>       0.18750000       0.68750000       0.43750000 </v>
    <v>       0.68750000       0.68750000       0.43750000 </v>
    <v>       0.18750000       0.18750000       0.93750000 </v>
    <v>       0.68750000       0.18750000       0.93750000 </v>
    <v>       0.18750000       0.68750000       0.93750000 </v>
    <v>       0.68750000       0.68750000       0.93750000 </v>
    <v>       0.06250000       0.06250000       0.06250000 </v>
    <v>       0.56250000       0.06250000       0.06250000 </v>
    <v>       0.06250000       0.56250000       0.06250000 </v>
    <v>       0.56250000       0.56250000       0.06250000 </v>
    <v>       0.06250000       0.06250000       0.56250000 </v>
    <v>       0.56250000       0.06250000       0.56250000 </v>
    <v>       0.06250000       0.56250000       0.56250000 </v>
    <v>       0.56250000       0.56250000       0.56250000 </v>
    <v>       0.06250000       0.31250000       0.31250000 </v>
    <v>       0.56250000       0.31250000       0.31250000 </v>
    <v>       0.06250000       0.81250000       0.31250000 </v>
    <v>       0.56250000       0.81250000       0.31250000 </v>
    <v>       0.06250000       0.31250000       0.81250000 </v>
    <v>       0.56250000       0.31250000       0.81250000 </v>
    <v>       0.06250000       0.81250000       0.81250000 </v>
    <v>       0.56250000       0.81250000       0.81250000 </v>
    <v>       0.31250000       0.06250000       0.31250000 </v>
    <v>       0.81250000       0.06250000       0.31250000 </v>
    <v>       0.31250000       0.56250000       0.31250000 </v>
    <v>       0.81250000       0.56250000       0.31250000 </v>
    <v>       0.31250000       0.06250000       0.81250000 </v>
    <v>       0.81250000       0.06250000       0.81250000 </v>
    <v>       0.31250000       0.56250000       0.81250000 </v>
    <v>       0.81250000       0.56250000       0.81250000 </v>
    <v>       0.31250000       0.31250000       0.06250000 </v>
    <v>       0.81250000       0.31250000       0.06250000 </v>
    <v>       0.31250000       0.81250000       0.06250000 </v>
    <v>       0.81250000       0.81250000       0.06250000 </v>
    <v>       0.31250000       0.31250000       0.56250000 </v>
    <v>       0.81250000       0.31250000       0.56250000 </v>
    <v>       0.31250000       0.81250000       0.56250000 </v>
    <v>       0.81250000       0.81250000       0.56250000 </v>
   </varray>
  </structure>
  <varray name="forces" >
   <v>      -0.38899951       0.00022683       0.00103124 </v>
   <v>       0.00239666      -0.00022870       0.00102101 </v>
   <v>       0.00700868       0.00276927       0.00580216 </v>
   <v>      -0.00586794      -0.00277522       0.00580045 </v>
   <v>       0.00317924       0.00023012       0.00101636 </v>
   <v>      -0.00203794      -0.00023333       0.00101800 </v>
   <v>      -0.01711599       0.00266731       0.00564583 </v>
   <v>       0.00613729      -0.00267328       0.00564728 </v>
   <v>      -0.01563583       0.00002197      -0.01010913 </v>
   <v>      -0.00269068       0.00289236      -0.01254407 </v>
   <v>      -0.01011117       0.00002106      -0.01545747 </v>
   <v>       0.00277093       0.00300612      -0.01311289 </v>
   <v>      -0.01300415      -0.00289107       0.00263990 </v>
   <v>      -0.00023459       0.00000034       0.00023303 </v>
   <v>      -0.01265298      -0.00300433      -0.00277251 </v>
   <v>       0.00020073       0.00000038      -0.00025167 </v>
   <v>       0.00564780      -0.00267195       0.00687710 </v>
   <v>       0.00580364      -0.00277411      -0.01723471 </v>
   <v>       0.00100815      -0.00023243      -0.38898474 </v>
   <v>       0.00102199      -0.00022964       0.00316448 </v>
   <v>       0.00564897       0.00266605      -0.00573440 </v>
   <v>       0.00580265       0.00276769       0.00626712 </v>
   <v>       0.00101711       0.00023117       0.00241106 </v>
   <v>       0.00102031       0.00022656      -0.00202317 </v>
   <v>       0.00842548       0.01124597       0.00312564 </v>
   <v>       0.00603006      -0.00753674      -0.00175327 </v>
   <v>       0.00288322      -0.01125522       0.00846520 </v>
   <v>       0.00557459       0.00753500       0.00378971 </v>
   <v>       0.00368989      -0.00742421       0.00541569 </v>
   <v>       0.00125210       0.00370919       0.00078876 </v>
   <v>      -0.00165004       0.00742250       0.00587954 </v>
   <v>       0.00078960      -0.00370833       0.00124596 </v>
   <v>       0.06042613      -0.06020832       0.09382359 </v>
   <v>       0.00710247      -0.00055865      -0.00074286 </v>
   <v>       0.00186454      -0.00023378      -0.00083312 </v>
   <v>      -0.00080352       0.00053851       0.00705978 </v>
   <v>       0.00152252      -0.00030260       0.00037759 </v>
   <v>      -0.00083493       0.00021934       0.00187398 </v>
   <v>       0.00043020       0.00027119       0.00157200 </v>
   <v>       0.09655386       0.06536041       0.06557234 </v>
   <v>      -0.00148836      -0.00183550      -0.00238574 </v>
   <v>       0.09513529      -0.06681639      -0.05991948 </v>
   <v>      -0.06549613      -0.06670707       0.09515313 </v>
   <v>      -0.00240066      -0.00213604      -0.00268849 </v>
   <v>      -0.00003690      -0.00125026       0.00001690 </v>
   <v>      -0.00223031      -0.00196701      -0.00146016 </v>
   <v>      -0.00144660      -0.00166507      -0.00103103 </v>
   <v>       0.00561500      -0.00133518      -0.00006589 </v>
   <v>       0.06466009       0.06522261       0.09707034 </v>
   <v>       0.00158669       0.00057497      -0.00076689 </v>
   <v>       0.09426486      -0.06003213       0.05950075 </v>
   <v>       0.00040944      -0.00021644       0.00711385 </v>
   <v>       0.00704878       0.00023621       0.00039908 </v>
   <v>       0.00006559      -0.00009068       0.00136413 </v>
   <v>      -0.00078036      -0.00064330       0.00150749 </v>
   <v>       0.00141681       0.00004904       0.00010396 </v>
   <v>      -0.00267765       0.00213589      -0.00232147 </v>
   <v>      -0.00001520       0.00138697       0.00549365 </v>
   <v>      -0.05480292       0.06161525       0.09238127 </v>
   <v>      -0.00142441       0.00199163      -0.00217856 </v>
   <v>       0.09236286       0.06160245      -0.06029347 </v>
   <v>      -0.00102260       0.00164957      -0.00143794 </v>
   <v>      -0.00233629       0.00179242      -0.00152261 </v>
   <v>       0.00002339       0.00135060      -0.00004357 </v>
  </varray>
  <varray name="stress" >
   <v>       0.00160859       0.33489409      -0.00006023 </v>
   <v>       0.33489411       0.02074840       0.33480443 </v>
   <v>      -0.00006024       0.33480443       0.00161027 </v>
  </varray>
  <energy>
   <i name="e_fr_energy">   -346.90685786 </i>
   <i name="e_wo_entrp">   -346.90685786 </i>
   <i name="e_0_energy">      0.00000000 </i>
  </energy>
  <time name="totalsc">  105.46  112.32</time>
  <eigenvalues>
   <array>
    <dimension dim="1">band</dimension>
    <dimension dim="2">kpoint</dimension>
    <dimension dim="3">spin</dimension>
    <field>eigene</field>
    <field>occ</field>
    <set>
     <set comment="spin 1">
      <set comment="kpoint 1">
       <r>   -5.9931    1.0000 </r>
       <r>   -5.4674    1.0000 </r>
       <r>   -5.4648    1.0000 </r>
       <r>   -5.4624    1.0000 </r>
       <r>   -4.9680    1.0000 </r>
       <r>   -4.9653    1.0000 </r>
       <r>   -4.9631    1.0000 </r>
       <r>   -4.5312    1.0000 </r>
       <r>   -4.4346    1.0000 </r>
       <r>   -4.4322    1.0000 </r>
       <r>   -4.4296    1.0000 </r>
       <r>   -4.0234    1.0000 </r>
       <r>   -4.0216    1.0000 </r>
       <r>   -4.0159    1.0000 </r>
       <r>   -4.0147    1.0000 </r>
       <r>   -4.0144    1.0000 </r>
       <r>   -4.0114    1.0000 </r>
       <r>   -3.8288    1.0000 </r>
       <r>   -3.8244    1.0000 </r>
       <r>   -3.8217    1.0000 </r>
       <r>   -3.3299    1.0000 </r>
       <r>   -3.3263    1.0000 </r>
       <r>   -3.3235    1.0000 </r>
       <r>   -2.9633    1.0000 </r>
       <r>   -2.9592    1.0000 </r>
       <r>   -2.9561    1.0000 </r>
       <r>   -2.7983    1.0000 </r>
       <r>   -2.7952    1.0000 </r>
       <r>   -2.7905    1.0000 </r>
       <r>   -2.7890    1.0000 </r>
       <r>   -2.7879    1.0000 </r>
       <r>   -2.7857    1.0000 </r>
       <r>   -1.2571    1.0000 </r>
       <r>   -1.2519    1.0000 </r>
       <r>   -1.2483    1.0000 </r>
       <r>   -1.2465    1.0000 </r>
       <r>   -1.2447    1.0000 </r>
       <r>   -1.2423    1.0000 </r>
       <r>   -1.1533    1.0000 </r>
       <r>   -1.1503    1.0000 </r>
       <r>   -1.1470    1.0000 </r>
       <r>   -1.0334    1.0000 </r>
       <r>   -1.0326    1.0000 </r>
       <r>   -1.0267    1.0000 </r>
       <r>   -0.9585    1.0000 </r>
       <r>   -0.9474    1.0000 </r>
       <r>   -0.9464    1.0000 </r>
       <r>   -0.2481    1.0000 </r>
       <r>   -0.1644    1.0000 </r>
       <r>   -0.1640    1.0000 </r>
       <r>   -0.1600    1.0000 </r>
       <r>   -0.1580    1.0000 </r>
       <r>   -0.1546    1.0000 </r>
       <r>   -0.1511    1.0000 </r>
       <r>    0.7063    1.0000 </r>
       <r>    0.7132    1.0000 </r>
       <r>    0.7165    1.0000 </r>
       <r>    1.0443    1.0000 </r>
       <r>    1.0470    1.0000 </r>
       <r>    1.0500    1.0000 </r>
       <r>    1.6530    1.0000 </r>
       <r>    1.6547    1.0000 </r>
       <r>    1.6565    1.0000 </r>
       <r>    1.6580    1.0000 </r>
       <r>    1.6592    1.0000 </r>
       <r>    1.6604    1.0000 </r>
       <r>    1.7146    1.0000 </r>
       <r>    1.7176    1.0000 </r>
       <r>    1.7197    1.0000 </r>
       <r>    2.2644    1.0000 </r>
       <r>    2.2654    1.0000 </r>
       <r>    2.2678    1.0000 </r>
       <r>    2.3673    1.0000 </r>
       <r>    2.3690    1.0000 </r>
       <r>    2.3702    1.0000 </r>
       <r>    2.3730    1.0000 </r>
       <r>    2.3760    1.0000 </r>
       <r>    2.3765    1.0000 </r>
       <r>    2.4247    1.0000 </r>
       <r>    2.4270    1.0000 </r>
       <r>    2.4303    1.0000 </r>
       <r>    2.7299    1.0000 </r>
       <r>    2.7320    1.0000 </r>
       <r>    2.7348    1.0000 </r>
       <r>    2.7361    1.0000 </r>
       <r>    2.7370    1.0000 </r>
       <r>    2.7389    1.0000 </r>
       <r>    2.9984    1.0000 </r>
       <r>    2.9998    1.0000 </r>
       <r>    3.0024    1.0000 </r>
       <r>    3.0122    1.0000 </r>
       <r>    3.0145    1.0000 </r>
       <r>    3.0179    1.0000 </r>
       <r>    3.3564    1.0000 </r>
       <r>    3.3604    1.0000 </r>
       <r>    3.3630    1.0000 </r>
       <r>    3.3790    1.0000 </r>
       <r>    3.3810    1.0000 </r>
       <r>    3.3845    1.0000 </r>
       <r>    3.4655    1.0000 </r>
       <r>    3.4668    1.0000 </r>
       <r>    3.4708    1.0000 </r>
       <r>    3.7317    1.0000 </r>
       <r>    3.7346    1.0000 </r>
       <r>    3.7398    1.0000 </r>
       <r>    3.7410    1.0000 </r>
       <r>    3.7421    1.0000 </r>
       <r>    3.7428    1.0000 </r>
       <r>    3.7796    1.0000 </r>
       <r>    3.7809    1.0000 </r>
       <r>    3.7855    1.0000 </r>
       <r>    4.0368    1.0000 </r>
       <r>    4.0978    1.0000 </r>
       <r>    4.0989    1.0000 </r>
       <r>    4.1038    1.0000 </r>
       <r>    4.3404    1.0000 </r>
       <r>    4.3416    1.0000 </r>
       <r>    4.3467    1.0000 </r>
       <r>    4.3954    1.0000 </r>
       <r>    4.4035    1.0000 </r>
       <r>    4.4051    1.0000 </r>
       <r>    4.5618    1.0000 </r>
       <r>    4.5664    1.0000 </r>
       <r>    4.8695    1.0000 </r>
       <r>    4.8708    1.0000 </r>
       <r>    4.8778    1.0000 </r>
       <r>    5.3493    1.0000 </r>
       <r>    5.3547    1.0000 </r>
       <r>    6.5617    0.0000 </r>
       <r>    6.5654    0.0000 </r>
       <r>    6.5679    0.0000 </r>
       <r>    7.0014    0.0000 </r>
       <r>    7.0041    0.0000 </r>
       <r>    7.0100    0.0000 </r>
       <r>    7.2351    0.0000 </r>
       <r>    7.4889    0.0000 </r>
       <r>    7.4921    0.0000 </r>
       <r>    7.4959    0.0000 </r>
       <r>    7.6153    0.0000 </r>
       <r>    7.6177    0.0000 </r>
       <r>    7.6217    0.0000 </r>
       <r>    7.7776    0.0000 </r>
       <r>    7.7803    0.0000 </r>
       <r>    7.7826    0.0000 </r>
       <r>    7.7988    0.0000 </r>
       <r>    7.8008    0.0000 </r>
       <r>    7.8062    0.0000 </r>
       <r>    8.0230    0.0000 </r>
       <r>    8.0252    0.0000 </r>
       <r>    8.0287    0.0000 </r>
       <r>    8.0305    0.0000 </r>
       <r>    8.0310    0.0000 </r>
       <r>    8.0343    0.0000 </r>
       <r>    8.0837    0.0000 </r>
       <r>    8.2929    0.0000 </r>
       <r>    8.2945    0.0000 </r>
       <r>    8.2982    0.0000 </r>
       <r>    8.4941    0.0000 </r>
       <r>    8.4989    0.0000 </r>
       <r>    8.5014    0.0000 </r>
       <r>    8.5032    0.0000 </r>
       <r>    8.5075    0.0000 </r>
       <r>    8.5238    0.0000 </r>
       <r>    8.5466    0.0000 </r>
      </set>
      <set comment="kpoint 2">
       <r>   -5.9932    1.0000 </r>
       <r>   -5.4657    1.0000 </r>
       <r>   -5.4648    1.0000 </r>
       <r>   -5.4638    1.0000 </r>
       <r>   -4.9664    1.0000 </r>
       <r>   -4.9655    1.0000 </r>
       <r>   -4.9646    1.0000 </r>
       <r>   -4.5323    1.0000 </r>
       <r>   -4.4339    1.0000 </r>
       <r>   -4.4325    1.0000 </r>
       <r>   -4.4309    1.0000 </r>
       <r>   -4.0243    1.0000 </r>
       <r>   -4.0187    1.0000 </r>
       <r>   -4.0169    1.0000 </r>
       <r>   -4.0159    1.0000 </r>
       <r>   -4.0141    1.0000 </r>
       <r>   -4.0087    1.0000 </r>
       <r>   -3.8286    1.0000 </r>
       <r>   -3.8244    1.0000 </r>
       <r>   -3.8200    1.0000 </r>
       <r>   -3.3314    1.0000 </r>
       <r>   -3.3283    1.0000 </r>
       <r>   -3.3254    1.0000 </r>
       <r>   -2.9640    1.0000 </r>
       <r>   -2.9591    1.0000 </r>
       <r>   -2.9544    1.0000 </r>
       <r>   -2.7989    1.0000 </r>
       <r>   -2.7937    1.0000 </r>
       <r>   -2.7910    1.0000 </r>
       <r>   -2.7907    1.0000 </r>
       <r>   -2.7881    1.0000 </r>
       <r>   -2.7826    1.0000 </r>
       <r>   -1.2584    1.0000 </r>
       <r>   -1.2521    1.0000 </r>
       <r>   -1.2489    1.0000 </r>
       <r>   -1.2485    1.0000 </r>
       <r>   -1.2455    1.0000 </r>
       <r>   -1.2398    1.0000 </r>
       <r>   -1.1563    1.0000 </r>
       <r>   -1.1511    1.0000 </r>
       <r>   -1.1461    1.0000 </r>
       <r>   -1.0379    1.0000 </r>
       <r>   -1.0328    1.0000 </r>
       <r>   -1.0272    1.0000 </r>
       <r>   -0.9533    1.0000 </r>
       <r>   -0.9468    1.0000 </r>
       <r>   -0.9399    1.0000 </r>
       <r>   -0.2446    1.0000 </r>
       <r>   -0.1694    1.0000 </r>
       <r>   -0.1642    1.0000 </r>
       <r>   -0.1614    1.0000 </r>
       <r>   -0.1589    1.0000 </r>
       <r>   -0.1561    1.0000 </r>
       <r>   -0.1507    1.0000 </r>
       <r>    0.7085    1.0000 </r>
       <r>    0.7143    1.0000 </r>
       <r>    0.7201    1.0000 </r>
       <r>    1.0429    1.0000 </r>
       <r>    1.0472    1.0000 </r>
       <r>    1.0512    1.0000 </r>
       <r>    1.6515    1.0000 </r>
       <r>    1.6556    1.0000 </r>
       <r>    1.6566    1.0000 </r>
       <r>    1.6574    1.0000 </r>
       <r>    1.6583    1.0000 </r>
       <r>    1.6617    1.0000 </r>
       <r>    1.7132    1.0000 </r>
       <r>    1.7159    1.0000 </r>
       <r>    1.7197    1.0000 </r>
       <r>    2.2650    1.0000 </r>
       <r>    2.2677    1.0000 </r>
       <r>    2.2705    1.0000 </r>
       <r>    2.3647    1.0000 </r>
       <r>    2.3668    1.0000 </r>
       <r>    2.3703    1.0000 </r>
       <r>    2.3715    1.0000 </r>
       <r>    2.3746    1.0000 </r>
       <r>    2.3765    1.0000 </r>
       <r>    2.4211    1.0000 </r>
       <r>    2.4251    1.0000 </r>
       <r>    2.4295    1.0000 </r>
       <r>    2.7302    1.0000 </r>
       <r>    2.7324    1.0000 </r>
       <r>    2.7343    1.0000 </r>
       <r>    2.7356    1.0000 </r>
       <r>    2.7375    1.0000 </r>
       <r>    2.7396    1.0000 </r>
       <r>    2.9976    1.0000 </r>
       <r>    2.9991    1.0000 </r>
       <r>    3.0009    1.0000 </r>
       <r>    3.0098    1.0000 </r>
       <r>    3.0134    1.0000 </r>
       <r>    3.0173    1.0000 </r>
       <r>    3.3601    1.0000 </r>
       <r>    3.3621    1.0000 </r>
       <r>    3.3636    1.0000 </r>
       <r>    3.3798    1.0000 </r>
       <r>    3.3844    1.0000 </r>
       <r>    3.3890    1.0000 </r>
       <r>    3.4635    1.0000 </r>
       <r>    3.4667    1.0000 </r>
       <r>    3.4696    1.0000 </r>
       <r>    3.7339    1.0000 </r>
       <r>    3.7398    1.0000 </r>
       <r>    3.7402    1.0000 </r>
       <r>    3.7423    1.0000 </r>
       <r>    3.7425    1.0000 </r>
       <r>    3.7485    1.0000 </r>
       <r>    3.7772    1.0000 </r>
       <r>    3.7809    1.0000 </r>
       <r>    3.7845    1.0000 </r>
       <r>    4.0406    1.0000 </r>
       <r>    4.0959    1.0000 </r>
       <r>    4.0980    1.0000 </r>
       <r>    4.1000    1.0000 </r>
       <r>    4.3374    1.0000 </r>
       <r>    4.3408    1.0000 </r>
       <r>    4.3446    1.0000 </r>
       <r>    4.4003    1.0000 </r>
       <r>    4.4057    1.0000 </r>
       <r>    4.4119    1.0000 </r>
       <r>    4.5588    1.0000 </r>
       <r>    4.5671    1.0000 </r>
       <r>    4.8652    1.0000 </r>
       <r>    4.8700    1.0000 </r>
       <r>    4.8750    1.0000 </r>
       <r>    5.3451    1.0000 </r>
       <r>    5.3544    1.0000 </r>
       <r>    6.5603    0.0000 </r>
       <r>    6.5632    0.0000 </r>
       <r>    6.5666    0.0000 </r>
       <r>    6.9991    0.0000 </r>
       <r>    7.0045    0.0000 </r>
       <r>    7.0097    0.0000 </r>
       <r>    7.2337    0.0000 </r>
       <r>    7.4860    0.0000 </r>
       <r>    7.4908    0.0000 </r>
       <r>    7.4955    0.0000 </r>
       <r>    7.6151    0.0000 </r>
       <r>    7.6196    0.0000 </r>
       <r>    7.6238    0.0000 </r>
       <r>    7.7759    0.0000 </r>
       <r>    7.7802    0.0000 </r>
       <r>    7.7832    0.0000 </r>
       <r>    7.7994    0.0000 </r>
       <r>    7.8012    0.0000 </r>
       <r>    7.8033    0.0000 </r>
       <r>    8.0238    0.0000 </r>
       <r>    8.0275    0.0000 </r>
       <r>    8.0295    0.0000 </r>
       <r>    8.0316    0.0000 </r>
       <r>    8.0337    0.0000 </r>
       <r>    8.0365    0.0000 </r>
       <r>    8.0816    0.0000 </r>
       <r>    8.2914    0.0000 </r>
       <r>    8.2950    0.0000 </r>
       <r>    8.2984    0.0000 </r>
       <r>    8.4948    0.0000 </r>
       <r>    8.4991    0.0000 </r>
       <r>    8.5028    0.0000 </r>
       <r>    8.5043    0.0000 </r>
       <r>    8.5083    0.0000 </r>
       <r>    8.5230    0.0000 </r>
       <r>    8.5400    0.0000 </r>
      </set>
      <set comment="kpoint 3">
       <r>   -5.9932    1.0000 </r>
       <r>   -5.4671    1.0000 </r>
       <r>   -5.4647    1.0000 </r>
       <r>   -5.4622    1.0000 </r>
       <r>   -4.9679    1.0000 </r>
       <r>   -4.9657    1.0000 </r>
       <r>   -4.9630    1.0000 </r>
       <r>   -4.5332    1.0000 </r>
       <r>   -4.4352    1.0000 </r>
       <r>   -4.4328    1.0000 </r>
       <r>   -4.4304    1.0000 </r>
       <r>   -4.0215    1.0000 </r>
       <r>   -4.0184    1.0000 </r>
       <r>   -4.0181    1.0000 </r>
       <r>   -4.0168    1.0000 </r>
       <r>   -4.0117    1.0000 </r>
       <r>   -4.0095    1.0000 </r>
       <r>   -3.8270    1.0000 </r>
       <r>   -3.8243    1.0000 </r>
       <r>   -3.8196    1.0000 </r>
       <r>   -3.3334    1.0000 </r>
       <r>   -3.3303    1.0000 </r>
       <r>   -3.3267    1.0000 </r>
       <r>   -2.9621    1.0000 </r>
       <r>   -2.9590    1.0000 </r>
       <r>   -2.9555    1.0000 </r>
       <r>   -2.7959    1.0000 </r>
       <r>   -2.7938    1.0000 </r>
       <r>   -2.7928    1.0000 </r>
       <r>   -2.7912    1.0000 </r>
       <r>   -2.7864    1.0000 </r>
       <r>   -2.7831    1.0000 </r>
       <r>   -1.2559    1.0000 </r>
       <r>   -1.2532    1.0000 </r>
       <r>   -1.2510    1.0000 </r>
       <r>   -1.2490    1.0000 </r>
       <r>   -1.2458    1.0000 </r>
       <r>   -1.2415    1.0000 </r>
       <r>   -1.1553    1.0000 </r>
       <r>   -1.1513    1.0000 </r>
       <r>   -1.1489    1.0000 </r>
       <r>   -1.0380    1.0000 </r>
       <r>   -1.0331    1.0000 </r>
       <r>   -1.0317    1.0000 </r>
       <r>   -0.9472    1.0000 </r>
       <r>   -0.9462    1.0000 </r>
       <r>   -0.9345    1.0000 </r>
       <r>   -0.2411    1.0000 </r>
       <r>   -0.1688    1.0000 </r>
       <r>   -0.1657    1.0000 </r>
       <r>   -0.1623    1.0000 </r>
       <r>   -0.1604    1.0000 </r>
       <r>   -0.1564    1.0000 </r>
       <r>   -0.1557    1.0000 </r>
       <r>    0.7121    1.0000 </r>
       <r>    0.7154    1.0000 </r>
       <r>    0.7222    1.0000 </r>
       <r>    1.0442    1.0000 </r>
       <r>    1.0472    1.0000 </r>
       <r>    1.0497    1.0000 </r>
       <r>    1.6532    1.0000 </r>
       <r>    1.6547    1.0000 </r>
       <r>    1.6558    1.0000 </r>
       <r>    1.6575    1.0000 </r>
       <r>    1.6589    1.0000 </r>
       <r>    1.6603    1.0000 </r>
       <r>    1.7124    1.0000 </r>
       <r>    1.7144    1.0000 </r>
       <r>    1.7188    1.0000 </r>
       <r>    2.2676    1.0000 </r>
       <r>    2.2701    1.0000 </r>
       <r>    2.2710    1.0000 </r>
       <r>    2.3647    1.0000 </r>
       <r>    2.3656    1.0000 </r>
       <r>    2.3684    1.0000 </r>
       <r>    2.3712    1.0000 </r>
       <r>    2.3726    1.0000 </r>
       <r>    2.3745    1.0000 </r>
       <r>    2.4200    1.0000 </r>
       <r>    2.4233    1.0000 </r>
       <r>    2.4258    1.0000 </r>
       <r>    2.7311    1.0000 </r>
       <r>    2.7330    1.0000 </r>
       <r>    2.7338    1.0000 </r>
       <r>    2.7351    1.0000 </r>
       <r>    2.7378    1.0000 </r>
       <r>    2.7399    1.0000 </r>
       <r>    2.9948    1.0000 </r>
       <r>    2.9989    1.0000 </r>
       <r>    3.0001    1.0000 </r>
       <r>    3.0101    1.0000 </r>
       <r>    3.0126    1.0000 </r>
       <r>    3.0148    1.0000 </r>
       <r>    3.3611    1.0000 </r>
       <r>    3.3634    1.0000 </r>
       <r>    3.3663    1.0000 </r>
       <r>    3.3842    1.0000 </r>
       <r>    3.3888    1.0000 </r>
       <r>    3.3897    1.0000 </r>
       <r>    3.4624    1.0000 </r>
       <r>    3.4662    1.0000 </r>
       <r>    3.4679    1.0000 </r>
       <r>    3.7395    1.0000 </r>
       <r>    3.7405    1.0000 </r>
       <r>    3.7416    1.0000 </r>
       <r>    3.7430    1.0000 </r>
       <r>    3.7477    1.0000 </r>
       <r>    3.7506    1.0000 </r>
       <r>    3.7757    1.0000 </r>
       <r>    3.7804    1.0000 </r>
       <r>    3.7825    1.0000 </r>
       <r>    4.0445    1.0000 </r>
       <r>    4.0920    1.0000 </r>
       <r>    4.0970    1.0000 </r>
       <r>    4.0982    1.0000 </r>
       <r>    4.3355    1.0000 </r>
       <r>    4.3403    1.0000 </r>
       <r>    4.3415    1.0000 </r>
       <r>    4.4062    1.0000 </r>
       <r>    4.4081    1.0000 </r>
       <r>    4.4171    1.0000 </r>
       <r>    4.5593    1.0000 </r>
       <r>    4.5642    1.0000 </r>
       <r>    4.8625    1.0000 </r>
       <r>    4.8692    1.0000 </r>
       <r>    4.8707    1.0000 </r>
       <r>    5.3448    1.0000 </r>
       <r>    5.3501    1.0000 </r>
       <r>    6.5586    0.0000 </r>
       <r>    6.5616    0.0000 </r>
       <r>    6.5652    0.0000 </r>
       <r>    6.9987    0.0000 </r>
       <r>    7.0048    0.0000 </r>
       <r>    7.0075    0.0000 </r>
       <r>    7.2323    0.0000 </r>
       <r>    7.4853    0.0000 </r>
       <r>    7.4894    0.0000 </r>
       <r>    7.4928    0.0000 </r>
       <r>    7.6171    0.0000 </r>
       <r>    7.6217    0.0000 </r>
       <r>    7.6239    0.0000 </r>
       <r>    7.7770    0.0000 </r>
       <r>    7.7788    0.0000 </r>
       <r>    7.7821    0.0000 </r>
       <r>    7.7964    0.0000 </r>
       <r>    7.8018    0.0000 </r>
       <r>    7.8034    0.0000 </r>
       <r>    8.0263    0.0000 </r>
       <r>    8.0302    0.0000 </r>
       <r>    8.0307    0.0000 </r>
       <r>    8.0324    0.0000 </r>
       <r>    8.0358    0.0000 </r>
       <r>    8.0379    0.0000 </r>
       <r>    8.0793    0.0000 </r>
       <r>    8.2916    0.0000 </r>
       <r>    8.2955    0.0000 </r>
       <r>    8.2971    0.0000 </r>
       <r>    8.4946    0.0000 </r>
       <r>    8.5001    0.0000 </r>
       <r>    8.5021    0.0000 </r>
       <r>    8.5049    0.0000 </r>
       <r>    8.5091    0.0000 </r>
       <r>    8.5169    0.0000 </r>
       <r>    8.5422    0.0000 </r>
      </set>
      <set comment="kpoint 4">
       <r>   -5.9932    1.0000 </r>
       <r>   -5.4681    1.0000 </r>
       <r>   -5.4648    1.0000 </r>
       <r>   -5.4614    1.0000 </r>
       <r>   -4.9689    1.0000 </r>
       <r>   -4.9655    1.0000 </r>
       <r>   -4.9621    1.0000 </r>
       <r>   -4.5322    1.0000 </r>
       <r>   -4.4356    1.0000 </r>
       <r>   -4.4325    1.0000 </r>
       <r>   -4.4294    1.0000 </r>
       <r>   -4.0235    1.0000 </r>
       <r>   -4.0195    1.0000 </r>
       <r>   -4.0165    1.0000 </r>
       <r>   -4.0163    1.0000 </r>
       <r>   -4.0133    1.0000 </r>
       <r>   -4.0094    1.0000 </r>
       <r>   -3.8286    1.0000 </r>
       <r>   -3.8243    1.0000 </r>
       <r>   -3.8200    1.0000 </r>
       <r>   -3.3320    1.0000 </r>
       <r>   -3.3284    1.0000 </r>
       <r>   -3.3248    1.0000 </r>
       <r>   -2.9640    1.0000 </r>
       <r>   -2.9592    1.0000 </r>
       <r>   -2.9543    1.0000 </r>
       <r>   -2.7978    1.0000 </r>
       <r>   -2.7937    1.0000 </r>
       <r>   -2.7909    1.0000 </r>
       <r>   -2.7908    1.0000 </r>
       <r>   -2.7880    1.0000 </r>
       <r>   -2.7838    1.0000 </r>
       <r>   -1.2576    1.0000 </r>
       <r>   -1.2524    1.0000 </r>
       <r>   -1.2491    1.0000 </r>
       <r>   -1.2484    1.0000 </r>
       <r>   -1.2454    1.0000 </r>
       <r>   -1.2407    1.0000 </r>
       <r>   -1.1562    1.0000 </r>
       <r>   -1.1510    1.0000 </r>
       <r>   -1.1460    1.0000 </r>
       <r>   -1.0378    1.0000 </r>
       <r>   -1.0328    1.0000 </r>
       <r>   -1.0272    1.0000 </r>
       <r>   -0.9539    1.0000 </r>
       <r>   -0.9468    1.0000 </r>
       <r>   -0.9394    1.0000 </r>
       <r>   -0.2445    1.0000 </r>
       <r>   -0.1690    1.0000 </r>
       <r>   -0.1648    1.0000 </r>
       <r>   -0.1606    1.0000 </r>
       <r>   -0.1598    1.0000 </r>
       <r>   -0.1553    1.0000 </r>
       <r>   -0.1512    1.0000 </r>
       <r>    0.7095    1.0000 </r>
       <r>    0.7143    1.0000 </r>
       <r>    0.7190    1.0000 </r>
       <r>    1.0432    1.0000 </r>
       <r>    1.0471    1.0000 </r>
       <r>    1.0509    1.0000 </r>
       <r>    1.6536    1.0000 </r>
       <r>    1.6547    1.0000 </r>
       <r>    1.6554    1.0000 </r>
       <r>    1.6584    1.0000 </r>
       <r>    1.6592    1.0000 </r>
       <r>    1.6600    1.0000 </r>
       <r>    1.7131    1.0000 </r>
       <r>    1.7160    1.0000 </r>
       <r>    1.7196    1.0000 </r>
       <r>    2.2650    1.0000 </r>
       <r>    2.2677    1.0000 </r>
       <r>    2.2705    1.0000 </r>
       <r>    2.3652    1.0000 </r>
       <r>    2.3668    1.0000 </r>
       <r>    2.3700    1.0000 </r>
       <r>    2.3717    1.0000 </r>
       <r>    2.3747    1.0000 </r>
       <r>    2.3760    1.0000 </r>
       <r>    2.4221    1.0000 </r>
       <r>    2.4253    1.0000 </r>
       <r>    2.4281    1.0000 </r>
       <r>    2.7287    1.0000 </r>
       <r>    2.7336    1.0000 </r>
       <r>    2.7345    1.0000 </r>
       <r>    2.7354    1.0000 </r>
       <r>    2.7363    1.0000 </r>
       <r>    2.7411    1.0000 </r>
       <r>    2.9974    1.0000 </r>
       <r>    2.9996    1.0000 </r>
       <r>    3.0008    1.0000 </r>
       <r>    3.0097    1.0000 </r>
       <r>    3.0133    1.0000 </r>
       <r>    3.0174    1.0000 </r>
       <r>    3.3579    1.0000 </r>
       <r>    3.3620    1.0000 </r>
       <r>    3.3658    1.0000 </r>
       <r>    3.3799    1.0000 </r>
       <r>    3.3842    1.0000 </r>
       <r>    3.3890    1.0000 </r>
       <r>    3.4632    1.0000 </r>
       <r>    3.4666    1.0000 </r>
       <r>    3.4701    1.0000 </r>
       <r>    3.7332    1.0000 </r>
       <r>    3.7381    1.0000 </r>
       <r>    3.7409    1.0000 </r>
       <r>    3.7416    1.0000 </r>
       <r>    3.7444    1.0000 </r>
       <r>    3.7495    1.0000 </r>
       <r>    3.7767    1.0000 </r>
       <r>    3.7806    1.0000 </r>
       <r>    3.7847    1.0000 </r>
       <r>    4.0406    1.0000 </r>
       <r>    4.0958    1.0000 </r>
       <r>    4.0981    1.0000 </r>
       <r>    4.1000    1.0000 </r>
       <r>    4.3371    1.0000 </r>
       <r>    4.3409    1.0000 </r>
       <r>    4.3449    1.0000 </r>
       <r>    4.4008    1.0000 </r>
       <r>    4.4056    1.0000 </r>
       <r>    4.4114    1.0000 </r>
       <r>    4.5588    1.0000 </r>
       <r>    4.5670    1.0000 </r>
       <r>    4.8649    1.0000 </r>
       <r>    4.8700    1.0000 </r>
       <r>    4.8753    1.0000 </r>
       <r>    5.3451    1.0000 </r>
       <r>    5.3544    1.0000 </r>
       <r>    6.5603    0.0000 </r>
       <r>    6.5632    0.0000 </r>
       <r>    6.5666    0.0000 </r>
       <r>    7.0005    0.0000 </r>
       <r>    7.0044    0.0000 </r>
       <r>    7.0084    0.0000 </r>
       <r>    7.2337    0.0000 </r>
       <r>    7.4872    0.0000 </r>
       <r>    7.4906    0.0000 </r>
       <r>    7.4942    0.0000 </r>
       <r>    7.6152    0.0000 </r>
       <r>    7.6196    0.0000 </r>
       <r>    7.6239    0.0000 </r>
       <r>    7.7788    0.0000 </r>
       <r>    7.7798    0.0000 </r>
       <r>    7.7808    0.0000 </r>
       <r>    7.7993    0.0000 </r>
       <r>    7.8012    0.0000 </r>
       <r>    7.8032    0.0000 </r>
       <r>    8.0233    0.0000 </r>
       <r>    8.0272    0.0000 </r>
       <r>    8.0293    0.0000 </r>
       <r>    8.0319    0.0000 </r>
       <r>    8.0340    0.0000 </r>
       <r>    8.0374    0.0000 </r>
       <r>    8.0814    0.0000 </r>
       <r>    8.2923    0.0000 </r>
       <r>    8.2949    0.0000 </r>
       <r>    8.2976    0.0000 </r>
       <r>    8.4931    0.0000 </r>
       <r>    8.4993    0.0000 </r>
       <r>    8.5007    0.0000 </r>
       <r>    8.5053    0.0000 </r>
       <r>    8.5075    0.0000 </r>
       <r>    8.5159    0.0000 </r>
       <r>    8.5396    0.0000 </r>
      </set>
     </set>
    </set>
   </array>
  </eigenvalues>
  <separator name="orbital magnetization" >
   <v name="MAGDIPOLOUT">      0.00000000      0.00000000      0.00000000</v>
  </separator>
  <dos>
   <i name="efermi">      5.59834783 </i>
   <total>
    <array>
     <dimension dim="1">gridpoints</dimension>
     <dimension dim="2">spin</dimension>
     <field>energy</field>
     <field>total</field>
     <field>integrated</field>
     <set>
      <set comment="spin 1">
       <r>    -6.7202     0.0000     0.0000 </r>
       <r>    -6.6669     0.0000     0.0000 </r>
       <r>    -6.6136     0.0000     0.0000 </r>
       <r>    -6.5603     0.0000     0.0000 </r>
       <r>    -6.5070     0.0000     0.0000 </r>
       <r>    -6.4537     0.0000     0.0000 </r>
       <r>    -6.4003     0.0000     0.0000 </r>
       <r>    -6.3470     0.0000     0.0000 </r>
       <r>    -6.2937     0.0000     0.0000 </r>
       <r>    -6.2404     0.0000     0.0000 </r>
       <r>    -6.1871     0.0000     0.0000 </r>
       <r>    -6.1338     0.0013     0.0001 </r>
       <r>    -6.0805     0.2526     0.0135 </r>
       <r>    -6.0272     6.0553     0.3364 </r>
       <r>    -5.9738    20.2379     1.4153 </r>
       <r>    -5.9205    10.2183     1.9601 </r>
       <r>    -5.8672     0.7421     1.9996 </r>
       <r>    -5.8139     0.0069     2.0000 </r>
       <r>    -5.7606     0.0000     2.0000 </r>
       <r>    -5.7073     0.0000     2.0000 </r>
       <r>    -5.6540     0.0000     2.0000 </r>
       <r>    -5.6007     0.0070     2.0004 </r>
       <r>    -5.5473     1.1033     2.0592 </r>
       <r>    -5.4940    21.8951     3.2265 </r>
       <r>    -5.4407    61.5814     6.5096 </r>
       <r>    -5.3874    26.3310     7.9133 </r>
       <r>    -5.3341     1.6131     7.9993 </r>
       <r>    -5.2808     0.0126     8.0000 </r>
       <r>    -5.2275     0.0000     8.0000 </r>
       <r>    -5.1742     0.0000     8.0000 </r>
       <r>    -5.1208     0.0006     8.0000 </r>
       <r>    -5.0675     0.2227     8.0119 </r>
       <r>    -5.0142     9.2911     8.5072 </r>
       <r>    -4.9609    52.5905    11.3110 </r>
       <r>    -4.9076    44.7048    13.6943 </r>
       <r>    -4.8543     5.6391    13.9950 </r>
       <r>    -4.8010     0.0945    14.0000 </r>
       <r>    -4.7477     0.0002    14.0000 </r>
       <r>    -4.6943     0.0001    14.0000 </r>
       <r>    -4.6410     0.0392    14.0021 </r>
       <r>    -4.5877     2.1509    14.1168 </r>
       <r>    -4.5344    15.8790    14.9633 </r>
       <r>    -4.4811    26.2203    16.3612 </r>
       <r>    -4.4278    55.3679    19.3130 </r>
       <r>    -4.3745    44.6929    21.6957 </r>
       <r>    -4.3212     5.6137    21.9950 </r>
       <r>    -4.2678     0.0938    22.0000 </r>
       <r>    -4.2145     0.0002    22.0000 </r>
       <r>    -4.1612     0.0054    22.0003 </r>
       <r>    -4.1079     1.1483    22.0615 </r>
       <r>    -4.0546    30.8389    23.7056 </r>
       <r>    -4.0013   117.6450    29.9776 </r>
       <r>    -3.9480    69.3325    33.6739 </r>
       <r>    -3.8947     8.7253    34.1391 </r>
       <r>    -3.8413    32.9371    35.8950 </r>
       <r>    -3.7880    59.7351    39.0797 </r>
       <r>    -3.7347    16.6088    39.9651 </r>
       <r>    -3.6814     0.6508    39.9998 </r>
       <r>    -3.6281     0.0032    40.0000 </r>
       <r>    -3.5748     0.0000    40.0000 </r>
       <r>    -3.5215     0.0000    40.0000 </r>
       <r>    -3.4681     0.0046    40.0002 </r>
       <r>    -3.4148     0.8281    40.0444 </r>
       <r>    -3.3615    18.8602    41.0499 </r>
       <r>    -3.3082    60.7722    44.2898 </r>
       <r>    -3.2549    29.9179    45.8848 </r>
       <r>    -3.2016     2.1407    45.9989 </r>
       <r>    -3.1483     0.0198    46.0000 </r>
       <r>    -3.0950     0.0074    46.0004 </r>
       <r>    -3.0416     1.1323    46.0608 </r>
       <r>    -2.9883    22.0336    47.2354 </r>
       <r>    -2.9350    61.4426    50.5111 </r>
       <r>    -2.8817    27.4979    51.9771 </r>
       <r>    -2.8284    33.2542    53.7500 </r>
       <r>    -2.7751   118.1082    60.0466 </r>
       <r>    -2.7218    68.2196    63.6836 </r>
       <r>    -2.6685     5.8675    63.9964 </r>
       <r>    -2.6151     0.0671    64.0000 </r>
       <r>    -2.5618     0.0001    64.0000 </r>
       <r>    -2.5085     0.0000    64.0000 </r>
       <r>    -2.4552     0.0000    64.0000 </r>
       <r>    -2.4019     0.0000    64.0000 </r>
       <r>    -2.3486     0.0000    64.0000 </r>
       <r>    -2.2953     0.0000    64.0000 </r>
       <r>    -2.2420     0.0000    64.0000 </r>
       <r>    -2.1886     0.0000    64.0000 </r>
       <r>    -2.1353     0.0000    64.0000 </r>
       <r>    -2.0820     0.0000    64.0000 </r>
       <r>    -2.0287     0.0000    64.0000 </r>
       <r>    -1.9754     0.0000    64.0000 </r>
       <r>    -1.9221     0.0000    64.0000 </r>
       <r>    -1.8688     0.0000    64.0000 </r>
       <r>    -1.8155     0.0000    64.0000 </r>
       <r>    -1.7621     0.0000    64.0000 </r>
       <r>    -1.7088     0.0000    64.0000 </r>
       <r>    -1.6555     0.0000    64.0000 </r>
       <r>    -1.6022     0.0000    64.0000 </r>
       <r>    -1.5489     0.0000    64.0000 </r>
       <r>    -1.4956     0.0000    64.0000 </r>
       <r>    -1.4423     0.0000    64.0000 </r>
       <r>    -1.3890     0.0100    64.0005 </r>
       <r>    -1.3356     1.7033    64.0913 </r>
       <r>    -1.2823    37.6589    66.0990 </r>
       <r>    -1.2290   122.2966    72.6190 </r>
       <r>    -1.1757    86.3429    77.2222 </r>
       <r>    -1.1224    66.6196    80.7739 </r>
       <r>    -1.0691    39.0173    82.8540 </r>
       <r>    -1.0158    63.7920    86.2549 </r>
       <r>    -0.9625    67.1921    89.8371 </r>
       <r>    -0.9091    61.4108    93.1111 </r>
       <r>    -0.8558    16.0312    93.9657 </r>
       <r>    -0.8025     0.6394    93.9998 </r>
       <r>    -0.7492     0.0034    94.0000 </r>
       <r>    -0.6959     0.0000    94.0000 </r>
       <r>    -0.6426     0.0000    94.0000 </r>
       <r>    -0.5893     0.0000    94.0000 </r>
       <r>    -0.5359     0.0000    94.0000 </r>
       <r>    -0.4826     0.0000    94.0000 </r>
       <r>    -0.4293     0.0000    94.0000 </r>
       <r>    -0.3760     0.0039    94.0002 </r>
       <r>    -0.3227     0.5128    94.0275 </r>
       <r>    -0.2694     8.8139    94.4974 </r>
       <r>    -0.2161    33.5328    96.2852 </r>
       <r>    -0.1628   100.1634   101.6251 </r>
       <r>    -0.1094   101.9368   107.0597 </r>
       <r>    -0.0561    17.2269   107.9781 </r>
       <r>    -0.0028     0.4097   107.9999 </r>
       <r>     0.0505     0.0012   108.0000 </r>
       <r>     0.1038     0.0000   108.0000 </r>
       <r>     0.1571     0.0000   108.0000 </r>
       <r>     0.2104     0.0000   108.0000 </r>
       <r>     0.2637     0.0000   108.0000 </r>
       <r>     0.3171     0.0000   108.0000 </r>
       <r>     0.3704     0.0000   108.0000 </r>
       <r>     0.4237     0.0000   108.0000 </r>
       <r>     0.4770     0.0000   108.0000 </r>
       <r>     0.5303     0.0000   108.0000 </r>
       <r>     0.5836     0.0139   108.0007 </r>
       <r>     0.6369     1.6766   108.0901 </r>
       <r>     0.6902    26.4635   109.5010 </r>
       <r>     0.7436    61.2414   112.7659 </r>
       <r>     0.7969    21.9946   113.9385 </r>
       <r>     0.8502     1.1458   113.9996 </r>
       <r>     0.9035     0.0106   114.0002 </r>
       <r>     0.9568     0.6116   114.0328 </r>
       <r>     1.0101    16.1191   114.8921 </r>
       <r>     1.0634    59.5269   118.0657 </r>
       <r>     1.1167    33.4968   119.8515 </r>
       <r>     1.1701     2.7565   119.9984 </r>
       <r>     1.2234     0.0295   120.0000 </r>
       <r>     1.2767     0.0000   120.0000 </r>
       <r>     1.3300     0.0000   120.0000 </r>
       <r>     1.3833     0.0000   120.0000 </r>
       <r>     1.4366     0.0000   120.0000 </r>
       <r>     1.4899     0.0003   120.0000 </r>
       <r>     1.5432     0.1521   120.0081 </r>
       <r>     1.5966     9.9047   120.5362 </r>
       <r>     1.6499    88.3524   125.2465 </r>
       <r>     1.7032   145.2421   132.9897 </r>
       <r>     1.7565    79.0002   137.2014 </r>
       <r>     1.8098    14.5088   137.9750 </r>
       <r>     1.8631     0.4679   137.9999 </r>
       <r>     1.9164     0.0019   138.0000 </r>
       <r>     1.9698     0.0000   138.0000 </r>
       <r>     2.0231     0.0000   138.0000 </r>
       <r>     2.0764     0.0000   138.0000 </r>
       <r>     2.1297     0.0055   138.0003 </r>
       <r>     2.1830     0.9405   138.0504 </r>
       <r>     2.2363    20.2066   139.1277 </r>
       <r>     2.2896    63.7681   142.5274 </r>
       <r>     2.3429    75.7465   146.5656 </r>
       <r>     2.3963   147.0162   154.4034 </r>
       <r>     2.4496   111.7943   160.3635 </r>
       <r>     2.5029    29.0649   161.9130 </r>
       <r>     2.5562     1.6188   161.9993 </r>
       <r>     2.6095     0.0587   162.0025 </r>
       <r>     2.6628     4.7023   162.2532 </r>
       <r>     2.7161    62.3477   165.5771 </r>
       <r>     2.7694   120.7231   172.0132 </r>
       <r>     2.8228    35.7622   173.9197 </r>
       <r>     2.8761     1.5321   174.0014 </r>
       <r>     2.9294     3.7083   174.1991 </r>
       <r>     2.9827    53.9928   177.0776 </r>
       <r>     3.0360   120.9287   183.5247 </r>
       <r>     3.0893    43.9773   185.8692 </r>
       <r>     3.1426     2.4349   185.9990 </r>
       <r>     3.1959     0.0184   186.0000 </r>
       <r>     3.2493     0.0923   186.0049 </r>
       <r>     3.3026     6.4270   186.3476 </r>
       <r>     3.3559    66.0380   189.8682 </r>
       <r>     3.4092   120.8232   196.3096 </r>
       <r>     3.4625    80.9664   200.6262 </r>
       <r>     3.5158    53.9858   203.5043 </r>
       <r>     3.5691     9.0826   203.9885 </r>
       <r>     3.6224     0.3124   204.0052 </r>
       <r>     3.6758     7.5446   204.4074 </r>
       <r>     3.7291    82.9910   208.8319 </r>
       <r>     3.7824   164.7581   217.6156 </r>
       <r>     3.8357    74.4828   221.5865 </r>
       <r>     3.8890     7.6244   221.9930 </r>
       <r>     3.9423     0.2368   222.0056 </r>
       <r>     3.9956     3.9498   222.2162 </r>
       <r>     4.0489    27.5727   223.6861 </r>
       <r>     4.1023    66.0508   227.2075 </r>
       <r>     4.1556    46.4941   229.6862 </r>
       <r>     4.2089     5.7980   229.9953 </r>
       <r>     4.2622     1.5786   230.0795 </r>
       <r>     4.3155    25.7664   231.4532 </r>
       <r>     4.3688    77.7977   235.6008 </r>
       <r>     4.4221    82.1781   239.9819 </r>
       <r>     4.4754    35.4321   241.8709 </r>
       <r>     4.5288    15.0063   242.6709 </r>
       <r>     4.5821    40.3231   244.8206 </r>
       <r>     4.6354    20.5705   245.9173 </r>
       <r>     4.6887     1.5361   245.9992 </r>
       <r>     4.7420     0.0331   246.0010 </r>
       <r>     4.7953     1.9976   246.1075 </r>
       <r>     4.8486    28.7731   247.6414 </r>
       <r>     4.9020    60.8826   250.8873 </r>
       <r>     4.9553    19.9280   251.9497 </r>
       <r>     5.0086     0.9383   251.9997 </r>
       <r>     5.0619     0.0057   252.0000 </r>
       <r>     5.1152     0.0000   252.0000 </r>
       <r>     5.1685     0.0000   252.0000 </r>
       <r>     5.2218     0.0122   252.0007 </r>
       <r>     5.2751     1.3421   252.0722 </r>
       <r>     5.3285    19.2741   253.0998 </r>
       <r>     5.3818    40.5868   255.2635 </r>
       <r>     5.4351    13.1949   255.9670 </r>
       <r>     5.4884     0.6153   255.9998 </r>
       <r>     5.5417     0.0037   256.0000 </r>
       <r>     5.5950     0.0000   256.0000 </r>
       <r>     5.6483     0.0000   256.0000 </r>
       <r>     5.7016     0.0000   256.0000 </r>
       <r>     5.7550     0.0000   256.0000 </r>
       <r>     5.8083     0.0000   256.0000 </r>
       <r>     5.8616     0.0000   256.0000 </r>
       <r>     5.9149     0.0000   256.0000 </r>
       <r>     5.9682     0.0000   256.0000 </r>
       <r>     6.0215     0.0000   256.0000 </r>
       <r>     6.0748     0.0000   256.0000 </r>
       <r>     6.1281     0.0000   256.0000 </r>
       <r>     6.1815     0.0000   256.0000 </r>
       <r>     6.2348     0.0000   256.0000 </r>
       <r>     6.2881     0.0000   256.0000 </r>
       <r>     6.3414     0.0000   256.0000 </r>
       <r>     6.3947     0.0001   256.0000 </r>
       <r>     6.4480     0.0643   256.0034 </r>
       <r>     6.5013     4.4507   256.2407 </r>
       <r>     6.5546    40.8120   258.4165 </r>
       <r>     6.6080    55.4665   261.3736 </r>
       <r>     6.6613    11.4246   261.9827 </r>
       <r>     6.7146     0.3241   261.9999 </r>
       <r>     6.7679     0.0011   262.0000 </r>
       <r>     6.8212     0.0000   262.0000 </r>
       <r>     6.8745     0.0145   262.0008 </r>
       <r>     6.9278     1.7426   262.0937 </r>
       <r>     6.9811    27.0912   263.5380 </r>
       <r>     7.0345    61.2844   266.8052 </r>
       <r>     7.0878    21.3385   267.9428 </r>
       <r>     7.1411     1.2310   268.0085 </r>
       <r>     7.1944     4.8405   268.2665 </r>
       <r>     7.2477    19.5361   269.3081 </r>
       <r>     7.3010    11.9103   269.9430 </r>
       <r>     7.3543     1.0634   269.9997 </r>
       <r>     7.4076     1.0945   270.0581 </r>
       <r>     7.4610    21.5509   271.2070 </r>
       <r>     7.5143    61.5473   274.4883 </r>
       <r>     7.5676    34.7142   276.3390 </r>
       <r>     7.6209    51.6109   279.0905 </r>
       <r>     7.6742    47.7958   281.6386 </r>
       <r>     7.7275    16.6544   282.5265 </r>
       <r>     7.7808    79.5402   286.7670 </r>
       <r>     7.8342   108.7755   292.5661 </r>
       <r>     7.8875    25.9250   293.9483 </r>
       <r>     7.9408     2.2912   294.0704 </r>
       <r>     7.9941    33.4606   295.8543 </r>
       <r>     8.0474   125.1609   302.5270 </r>
       <r>     8.1007    86.1804   307.1215 </r>
       <r>     8.1540    15.6662   307.9567 </r>
       <r>     8.2073     1.5605   308.0399 </r>
       <r>     8.2607    17.9908   308.9990 </r>
       <r>     8.3140    60.5063   312.2248 </r>
       <r>     8.3673    30.9917   313.8770 </r>
       <r>     8.4206     4.5753   314.1209 </r>
       <r>     8.4739    43.5350   316.4419 </r>
       <r>     8.5272   131.9891   323.4786 </r>
       <r>     8.5805    75.4208   327.4995 </r>
       <r>     8.6338     9.1616   327.9879 </r>
       <r>     8.6872     0.2255   328.0000 </r>
       <r>     8.7405     0.0009   328.0000 </r>
       <r>     8.7938     0.0000   328.0000 </r>
       <r>     8.8471     0.0000   328.0000 </r>
       <r>     8.9004     0.0000   328.0000 </r>
       <r>     8.9537     0.0000   328.0000 </r>
       <r>     9.0070     0.0000   328.0000 </r>
       <r>     9.0603     0.0000   328.0000 </r>
       <r>     9.1137     0.0000   328.0000 </r>
       <r>     9.1670     0.0000   328.0000 </r>
       <r>     9.2203     0.0000   328.0000 </r>
       <r>     9.2736     0.0000   328.0000 </r>
      </set>
     </set>
    </array>
   </total>
  </dos>
 </calculation>
 <structure name="finalpos" >
  <crystal>
   <varray name="basis" >
    <v>      10.93252578       0.00000000       0.00000000 </v>
    <v>       0.00000000      10.93252578       0.00000000 </v>
    <v>       0.00000000       0.00000000      10.93252578 </v>
   </varray>
   <i name="volume">   1306.65679237 </i>
   <varray name="rec_basis" >
    <v>       0.09147017       0.00000000       0.00000000 </v>
    <v>       0.00000000       0.09147017       0.00000000 </v>
    <v>       0.00000000       0.00000000       0.09147017 </v>
   </varray>
  </crystal>
  <varray name="positions" >
   <v>       0.44024411       0.43750000       0.43750000 </v>
   <v>       0.93750000       0.43750000       0.43750000 </v>
   <v>       0.43750000       0.93750000       0.43750000 </v>
   <v>       0.93750000       0.93750000       0.43750000 </v>
   <v>       0.43750000       0.43750000       0.93750000 </v>
   <v>       0.93750000       0.43750000       0.93750000 </v>
   <v>       0.43750000       0.93750000       0.93750000 </v>
   <v>       0.93750000       0.93750000       0.93750000 </v>
   <v>       0.43750000       0.18750000       0.18750000 </v>
   <v>       0.93750000       0.18750000       0.18750000 </v>
   <v>       0.43750000       0.68750000       0.18750000 </v>
   <v>       0.93750000       0.68750000       0.18750000 </v>
   <v>       0.43750000       0.18750000       0.68750000 </v>
   <v>       0.93750000       0.18750000       0.68750000 </v>
   <v>       0.43750000       0.68750000       0.68750000 </v>
   <v>       0.93750000       0.68750000       0.68750000 </v>
   <v>       0.18750000       0.43750000       0.18750000 </v>
   <v>       0.68750000       0.43750000       0.18750000 </v>
   <v>       0.18750000       0.93750000       0.19024411 </v>
   <v>       0.68750000       0.93750000       0.18750000 </v>
   <v>       0.18750000       0.43750000       0.68750000 </v>
   <v>       0.68750000       0.43750000       0.68750000 </v>
   <v>       0.18750000       0.93750000       0.68750000 </v>
   <v>       0.68750000       0.93750000       0.68750000 </v>
   <v>       0.18750000       0.18750000       0.43750000 </v>
   <v>       0.68750000       0.18750000       0.43750000 </v>
   <v>       0.18750000       0.68750000       0.43750000 </v>
   <v>       0.68750000       0.68750000       0.43750000 </v>
   <v>       0.18750000       0.18750000       0.93750000 </v>
   <v>       0.68750000       0.18750000       0.93750000 </v>
   <v>       0.18750000       0.68750000       0.93750000 </v>
   <v>       0.68750000       0.68750000       0.93750000 </v>
   <v>       0.06250000       0.06250000       0.06250000 </v>
   <v>       0.56250000       0.06250000       0.06250000 </v>
   <v>       0.06250000       0.56250000       0.06250000 </v>
   <v>       0.56250000       0.56250000       0.06250000 </v>
   <v>       0.06250000       0.06250000       0.56250000 </v>
   <v>       0.56250000       0.06250000       0.56250000 </v>
   <v>       0.06250000       0.56250000       0.56250000 </v>
   <v>       0.56250000       0.56250000       0.56250000 </v>
   <v>       0.06250000       0.31250000       0.31250000 </v>
   <v>       0.56250000       0.31250000       0.31250000 </v>
   <v>       0.06250000       0.81250000       0.31250000 </v>
   <v>       0.56250000       0.81250000       0.31250000 </v>
   <v>       0.06250000       0.31250000       0.81250000 </v>
   <v>       0.56250000       0.31250000       0.81250000 </v>
   <v>       0.06250000       0.81250000       0.81250000 </v>
   <v>       0.56250000       0.81250000       0.81250000 </v>
   <v>       0.31250000       0.06250000       0.31250000 </v>
   <v>       0.81250000       0.06250000       0.31250000 </v>
   <v>       0.31250000       0.56250000       0.31250000 </v>
   <v>       0.81250000       0.56250000       0.31250000 </v>
   <v>       0.31250000       0.06250000       0.81250000 </v>
   <v>       0.81250000       0.06250000       0.81250000 </v>
   <v>       0.31250000       0.56250000       0.81250000 </v>
   <v>       0.81250000       0.56250000       0.81250000 </v>
   <v>       0.31250000       0.31250000       0.06250000 </v>
   <v>       0.81250000       0.31250000       0.06250000 </v>
   <v>       0.31250000       0.81250000       0.06250000 </v>
   <v>       0.81250000       0.81250000       0.06250000 </v>
   <v>       0.31250000       0.31250000       0.56250000 </v>
   <v>       0.81250000       0.31250000       0.56250000 </v>
   <v>       0.31250000       0.81250000       0.56250000 </v>
   <v>       0.81250000       0.81250000       0.56250000 </v>
  </varray>
 </structure>
</modeling>
