
     Program PWSCF v.5.3.0 (svn rev. 11974) starts on  3Feb2016 at 13:47:27 

     This program is part of the open-source Quantum ESPRESSO suite
     for quantum simulation of materials; please cite
         "P. Giannozzi et al., J. Phys.:Condens. Matter 21 395502 (2009);
          URL http://www.quantum-espresso.org", 
     in publications or presentations arising from this work. More details at
     http://www.quantum-espresso.org/quote

     Parallel version (MPI), running on    16 processors
     R & G space division:  proc/nbgrp/npool/nimage =      16
     Reading input from Si.in

     Current dimensions of program PWSCF are:
     Max number of different atomic species (ntypx) = 10
     Max number of k-points (npk) =  40000
     Max angular momentum in pseudopotentials (lmaxx) =  3
               file Si.pbe-n-kjpaw_psl.0.1.UPF: wavefunction(s)  3S renormalized

     Subspace diagonalization in iterative solution of the eigenvalue problem:
     one sub-group per k-point group (pool) will be used
     scalapack distributed-memory algorithm (size of sub-group:  2*  2 procs)

 
     Parallelization info
     --------------------
     sticks:   dense  smooth     PW     G-vecs:    dense   smooth      PW
     Min         424     424    109                26332    26332    3467
     Max         425     425    110                26336    26336    3472
     Sum        6785    6785   1757               421349   421349   55515
 


     bravais-lattice index     =            0
     lattice parameter (alat)  =      20.6591  a.u.
     unit-cell volume          =    8817.2783 (a.u.)^3
     number of atoms/cell      =           64
     number of atomic types    =            1
     number of electrons       =       256.00
     number of Kohn-Sham states=          154
     kinetic-energy cutoff     =      50.0000  Ry
     charge density cutoff     =     200.0000  Ry
     convergence threshold     =      1.0E-09
     mixing beta               =       0.7000
     number of iterations used =            8  plain     mixing
     Exchange-correlation      =  SLA  PW   PBX  PBC ( 1  4  3  4 0 0)

     celldm(1)=  20.659106  celldm(2)=   0.000000  celldm(3)=   0.000000
     celldm(4)=   0.000000  celldm(5)=   0.000000  celldm(6)=   0.000000

     crystal axes: (cart. coord. in units of alat)
               a(1) = (   1.000000   0.000000   0.000000 )  
               a(2) = (   0.000000   1.000000   0.000000 )  
               a(3) = (   0.000000   0.000000   1.000000 )  

     reciprocal axes: (cart. coord. in units 2 pi/alat)
               b(1) = (  1.000000  0.000000  0.000000 )  
               b(2) = (  0.000000  1.000000  0.000000 )  
               b(3) = (  0.000000  0.000000  1.000000 )  


     PseudoPot. # 1 for Si read from file:
     /home/togo/espresso/pseudo/Si.pbe-n-kjpaw_psl.0.1.UPF
     MD5 check sum: b9d333a40e496bef61db012f150758bf
     Pseudo is Projector augmented-wave + core cor, Zval =  4.0
     Generated using "atomic" code by A. Dal Corso  v.5.0.2 svn rev. 9415
     Shape of augmentation charge: PSQ
     Using radial grid of 1141 points,  4 beta functions with: 
                l(1) =   0
                l(2) =   0
                l(3) =   1
                l(4) =   1
     Q(r) pseudized with 0 coefficients 


     atomic species   valence    mass     pseudopotential
        Si             4.00    28.08550     Si( 1.00)

     No symmetry found



   Cartesian axes

     site n.     atom                  positions (alat units)
         1           Si  tau(   1) = (   0.4404043   0.4375000   0.4375000  )
         2           Si  tau(   2) = (   0.9375000   0.4375000   0.4375000  )
         3           Si  tau(   3) = (   0.4375000   0.9375000   0.4375000  )
         4           Si  tau(   4) = (   0.9375000   0.9375000   0.4375000  )
         5           Si  tau(   5) = (   0.4375000   0.4375000   0.9375000  )
         6           Si  tau(   6) = (   0.9375000   0.4375000   0.9375000  )
         7           Si  tau(   7) = (   0.4375000   0.9375000   0.9375000  )
         8           Si  tau(   8) = (   0.9375000   0.9375000   0.9375000  )
         9           Si  tau(   9) = (   0.4375000   0.1875000   0.1875000  )
        10           Si  tau(  10) = (   0.9375000   0.1875000   0.1875000  )
        11           Si  tau(  11) = (   0.4375000   0.6875000   0.1875000  )
        12           Si  tau(  12) = (   0.9375000   0.6875000   0.1875000  )
        13           Si  tau(  13) = (   0.4375000   0.1875000   0.6875000  )
        14           Si  tau(  14) = (   0.9375000   0.1875000   0.6875000  )
        15           Si  tau(  15) = (   0.4375000   0.6875000   0.6875000  )
        16           Si  tau(  16) = (   0.9375000   0.6875000   0.6875000  )
        17           Si  tau(  17) = (   0.1875000   0.4375000   0.1875000  )
        18           Si  tau(  18) = (   0.6875000   0.4375000   0.1875000  )
        19           Si  tau(  19) = (   0.1875000   0.9375000   0.1875000  )
        20           Si  tau(  20) = (   0.6875000   0.9375000   0.1875000  )
        21           Si  tau(  21) = (   0.1875000   0.4375000   0.6875000  )
        22           Si  tau(  22) = (   0.6875000   0.4375000   0.6875000  )
        23           Si  tau(  23) = (   0.1875000   0.9375000   0.6875000  )
        24           Si  tau(  24) = (   0.6875000   0.9375000   0.6875000  )
        25           Si  tau(  25) = (   0.1875000   0.1875000   0.4375000  )
        26           Si  tau(  26) = (   0.6875000   0.1875000   0.4375000  )
        27           Si  tau(  27) = (   0.1875000   0.6875000   0.4375000  )
        28           Si  tau(  28) = (   0.6875000   0.6875000   0.4375000  )
        29           Si  tau(  29) = (   0.1875000   0.1875000   0.9375000  )
        30           Si  tau(  30) = (   0.6875000   0.1875000   0.9375000  )
        31           Si  tau(  31) = (   0.1875000   0.6875000   0.9375000  )
        32           Si  tau(  32) = (   0.6875000   0.6875000   0.9375000  )
        33           Si  tau(  33) = (   0.0625000   0.0625000   0.0625000  )
        34           Si  tau(  34) = (   0.5625000   0.0625000   0.0625000  )
        35           Si  tau(  35) = (   0.0625000   0.5625000   0.0625000  )
        36           Si  tau(  36) = (   0.5625000   0.5625000   0.0625000  )
        37           Si  tau(  37) = (   0.0625000   0.0625000   0.5625000  )
        38           Si  tau(  38) = (   0.5625000   0.0625000   0.5625000  )
        39           Si  tau(  39) = (   0.0625000   0.5625000   0.5625000  )
        40           Si  tau(  40) = (   0.5625000   0.5625000   0.5625000  )
        41           Si  tau(  41) = (   0.0625000   0.3125000   0.3125000  )
        42           Si  tau(  42) = (   0.5625000   0.3125000   0.3125000  )
        43           Si  tau(  43) = (   0.0625000   0.8125000   0.3125000  )
        44           Si  tau(  44) = (   0.5625000   0.8125000   0.3125000  )
        45           Si  tau(  45) = (   0.0625000   0.3125000   0.8125000  )
        46           Si  tau(  46) = (   0.5625000   0.3125000   0.8125000  )
        47           Si  tau(  47) = (   0.0625000   0.8125000   0.8125000  )
        48           Si  tau(  48) = (   0.5625000   0.8125000   0.8125000  )
        49           Si  tau(  49) = (   0.3125000   0.0625000   0.3125000  )
        50           Si  tau(  50) = (   0.8154043   0.0625000   0.3125000  )
        51           Si  tau(  51) = (   0.3125000   0.5625000   0.3125000  )
        52           Si  tau(  52) = (   0.8125000   0.5625000   0.3125000  )
        53           Si  tau(  53) = (   0.3125000   0.0625000   0.8125000  )
        54           Si  tau(  54) = (   0.8125000   0.0625000   0.8125000  )
        55           Si  tau(  55) = (   0.3125000   0.5625000   0.8125000  )
        56           Si  tau(  56) = (   0.8125000   0.5625000   0.8125000  )
        57           Si  tau(  57) = (   0.3125000   0.3125000   0.0625000  )
        58           Si  tau(  58) = (   0.8125000   0.3125000   0.0625000  )
        59           Si  tau(  59) = (   0.3125000   0.8125000   0.0625000  )
        60           Si  tau(  60) = (   0.8125000   0.8125000   0.0625000  )
        61           Si  tau(  61) = (   0.3125000   0.3125000   0.5625000  )
        62           Si  tau(  62) = (   0.8125000   0.3125000   0.5625000  )
        63           Si  tau(  63) = (   0.3125000   0.8125000   0.5625000  )
        64           Si  tau(  64) = (   0.8125000   0.8125000   0.5625000  )

     number of k points=     4  gaussian smearing, width (Ry)=  0.0100
                       cart. coord. in units 2pi/alat
        k(    1) = (   0.2500000   0.2500000   0.2500000), wk =   0.5000000
        k(    2) = (  -0.2500000  -0.2500000   0.2500000), wk =   0.5000000
        k(    3) = (  -0.2500000   0.2500000  -0.2500000), wk =   0.5000000
        k(    4) = (   0.2500000  -0.2500000  -0.2500000), wk =   0.5000000

     Dense  grid:   421349 G-vectors     FFT dimensions: (  96,  96,  96)

     Largest allocated arrays     est. size (Mb)     dimensions
        Kohn-Sham Wavefunctions         7.73 Mb     (    3289,  154)
        NL pseudopotentials            25.70 Mb     (    3289,  512)
        Each V/rho on FFT grid          0.84 Mb     (   55296)
        Each G-vector array             0.20 Mb     (   26336)
        G-vector shells                 0.01 Mb     (    1719)
     Largest temporary arrays     est. size (Mb)     dimensions
        Auxiliary wavefunctions        30.91 Mb     (    3289,  616)
        Each subspace H/S matrix        1.45 Mb     (     308,  308)
        Each <psi_i|beta_j> matrix      1.20 Mb     (     512,  154)
        Arrays for rho mixing           6.75 Mb     (   55296,    8)

     Check: negative/imaginary core charge=   -0.000001    0.000000

     Initial potential from superposition of free atoms

     starting charge  255.96421, renormalised to  256.00000
     Starting wfc are  256 randomized atomic wfcs
     Checking if some PAW data can be deallocated... 

     total cpu time spent up to now is        9.4 secs

     per-process dynamical memory:   114.8 Mb

     Self-consistent Calculation

     iteration #  1     ecut=    50.00 Ry     beta=0.70
     Davidson diagonalization with overlap
     ethr =  1.00E-02,  avg # of iterations =  3.0

     Threshold (ethr) on eigenvalues was too large:
     Diagonalizing with lowered threshold

     Davidson diagonalization with overlap
     ethr =  7.00E-04,  avg # of iterations =  1.0

     total cpu time spent up to now is       45.0 secs

     total energy              =   -2990.45694517 Ry
     Harris-Foulkes estimate   =   -2990.87680625 Ry
     estimated scf accuracy    <       1.77310170 Ry

     iteration #  2     ecut=    50.00 Ry     beta=0.70
     Davidson diagonalization with overlap
     ethr =  6.93E-04,  avg # of iterations =  1.0

     total cpu time spent up to now is       58.2 secs

     total energy              =   -2990.52359715 Ry
     Harris-Foulkes estimate   =   -2990.52749248 Ry
     estimated scf accuracy    <       0.07635353 Ry

     iteration #  3     ecut=    50.00 Ry     beta=0.70
     Davidson diagonalization with overlap
     ethr =  2.98E-05,  avg # of iterations = 10.2

     total cpu time spent up to now is       86.9 secs

     total energy              =   -2990.53054909 Ry
     Harris-Foulkes estimate   =   -2990.53138293 Ry
     estimated scf accuracy    <       0.00201382 Ry

     iteration #  4     ecut=    50.00 Ry     beta=0.70
     Davidson diagonalization with overlap
     ethr =  7.87E-07,  avg # of iterations =  7.0

     total cpu time spent up to now is      124.3 secs

     total energy              =   -2990.53032428 Ry
     Harris-Foulkes estimate   =   -2990.53278934 Ry
     estimated scf accuracy    <       0.00765099 Ry

     iteration #  5     ecut=    50.00 Ry     beta=0.70
     Davidson diagonalization with overlap
     ethr =  7.87E-07,  avg # of iterations =  4.8

     total cpu time spent up to now is      148.7 secs

     total energy              =   -2990.53147572 Ry
     Harris-Foulkes estimate   =   -2990.53161114 Ry
     estimated scf accuracy    <       0.00039526 Ry

     iteration #  6     ecut=    50.00 Ry     beta=0.70
     Davidson diagonalization with overlap
     ethr =  1.54E-07,  avg # of iterations =  2.0

     total cpu time spent up to now is      164.7 secs

     total energy              =   -2990.53154393 Ry
     Harris-Foulkes estimate   =   -2990.53156079 Ry
     estimated scf accuracy    <       0.00004794 Ry

     iteration #  7     ecut=    50.00 Ry     beta=0.70
     Davidson diagonalization with overlap
     ethr =  1.87E-08,  avg # of iterations =  3.0

     total cpu time spent up to now is      182.7 secs

     total energy              =   -2990.53155284 Ry
     Harris-Foulkes estimate   =   -2990.53155491 Ry
     estimated scf accuracy    <       0.00000475 Ry

     iteration #  8     ecut=    50.00 Ry     beta=0.70
     Davidson diagonalization with overlap
     ethr =  1.86E-09,  avg # of iterations =  3.0

     total cpu time spent up to now is      202.8 secs

     total energy              =   -2990.53155409 Ry
     Harris-Foulkes estimate   =   -2990.53155430 Ry
     estimated scf accuracy    <       0.00000049 Ry

     iteration #  9     ecut=    50.00 Ry     beta=0.70
     Davidson diagonalization with overlap
     ethr =  1.90E-10,  avg # of iterations =  3.0

     total cpu time spent up to now is      221.7 secs

     total energy              =   -2990.53155412 Ry
     Harris-Foulkes estimate   =   -2990.53155422 Ry
     estimated scf accuracy    <       0.00000016 Ry

     iteration # 10     ecut=    50.00 Ry     beta=0.70
     Davidson diagonalization with overlap
     ethr =  6.15E-11,  avg # of iterations =  3.0

     total cpu time spent up to now is      238.8 secs

     total energy              =   -2990.53155410 Ry
     Harris-Foulkes estimate   =   -2990.53155416 Ry
     estimated scf accuracy    <       0.00000007 Ry

     iteration # 11     ecut=    50.00 Ry     beta=0.70
     Davidson diagonalization with overlap
     ethr =  2.91E-11,  avg # of iterations =  2.0

     total cpu time spent up to now is      254.7 secs

     total energy              =   -2990.53155411 Ry
     Harris-Foulkes estimate   =   -2990.53155411 Ry
     estimated scf accuracy    <          2.0E-09 Ry

     iteration # 12     ecut=    50.00 Ry     beta=0.70
     Davidson diagonalization with overlap
     ethr =  7.98E-13,  avg # of iterations =  3.0

     total cpu time spent up to now is      279.6 secs

     total energy              =   -2990.53155411 Ry
     Harris-Foulkes estimate   =   -2990.53155412 Ry
     estimated scf accuracy    <          1.3E-09 Ry

     iteration # 13     ecut=    50.00 Ry     beta=0.70
     Davidson diagonalization with overlap
     ethr =  4.91E-13,  avg # of iterations =  2.8

     total cpu time spent up to now is      299.8 secs

     End of self-consistent calculation

          k = 0.2500 0.2500 0.2500 ( 52563 PWs)   bands (ev):

    -5.6250  -5.0990  -5.0963  -5.0937  -4.5992  -4.5968  -4.5943  -4.1631
    -4.0657  -4.0634  -4.0610  -3.6557  -3.6494  -3.6487  -3.6454  -3.6446
    -3.6386  -3.4600  -3.4549  -3.4495  -2.9608  -2.9587  -2.9563  -2.5944
    -2.5891  -2.5842  -2.4285  -2.4239  -2.4228  -2.4187  -2.4178  -2.4129
    -0.8855  -0.8819  -0.8803  -0.8761  -0.8747  -0.8714  -0.7849  -0.7804
    -0.7757  -0.6658  -0.6624  -0.6587  -0.5834  -0.5762  -0.5685   0.1263
     0.2039   0.2055   0.2089   0.2125   0.2161   0.2176   1.0801   1.0854
     1.0906   1.4168   1.4183   1.4198   2.0250   2.0262   2.0278   2.0306
     2.0321   2.0332   2.0855   2.0881   2.0911   2.6378   2.6400   2.6425
     2.7368   2.7387   2.7428   2.7438   2.7476   2.7494   2.7935   2.7961
     2.7994   3.1030   3.1048   3.1070   3.1083   3.1106   3.1119   3.3696
     3.3716   3.3737   3.3849   3.3866   3.3874   3.7313   3.7345   3.7377
     3.7516   3.7568   3.7616   3.8371   3.8395   3.8420   4.1050   4.1119
     4.1139   4.1147   4.1167   4.1231   4.1507   4.1539   4.1567   4.4131
     4.4685   4.4709   4.4735   4.7115   4.7144   4.7174   4.7735   4.7787
     4.7848   4.9362   4.9363   5.2395   5.2436   5.2477   5.7239   5.7241
     6.9322   6.9363   6.9402   7.3718   7.3768   7.3817   7.5987   7.8579
     7.8620   7.8656   7.9870   7.9916   7.9964   8.1481   8.1512   8.1537
     8.1661   8.1696   8.1728   8.3968   8.3980   8.4011   8.4038   8.4068
     8.4078   8.4481

          k =-0.2500-0.2500 0.2500 ( 52563 PWs)   bands (ev):

    -5.6250  -5.1000  -5.0963  -5.0927  -4.6004  -4.5967  -4.5931  -4.1631
    -4.0670  -4.0634  -4.0598  -3.6557  -3.6503  -3.6478  -3.6461  -3.6438
    -3.6387  -3.4549  -3.4548  -3.4545  -2.9625  -2.9586  -2.9546  -2.5897
    -2.5892  -2.5890  -2.4289  -2.4237  -2.4220  -2.4196  -2.4179  -2.4124
    -0.8868  -0.8818  -0.8801  -0.8763  -0.8748  -0.8703  -0.7806  -0.7805
    -0.7798  -0.6624  -0.6623  -0.6619  -0.5836  -0.5762  -0.5685   0.1264
     0.2041   0.2063   0.2082   0.2133   0.2154   0.2173   1.0782   1.0854
     1.0924   1.4162   1.4183   1.4205   2.0250   2.0269   2.0286   2.0298
     2.0312   2.0330   2.0860   2.0884   2.0907   2.6385   2.6402   2.6416
     2.7388   2.7394   2.7423   2.7441   2.7462   2.7470   2.7936   2.7967
     2.8002   3.1015   3.1047   3.1074   3.1077   3.1103   3.1135   3.3698
     3.3717   3.3734   3.3844   3.3867   3.3879   3.7302   3.7346   3.7388
     3.7546   3.7563   3.7589   3.8365   3.8394   3.8425   4.1080   4.1113
     4.1135   4.1151   4.1164   4.1207   4.1506   4.1535   4.1575   4.4133
     4.4679   4.4712   4.4736   4.7112   4.7143   4.7177   4.7726   4.7787
     4.7856   4.9363   4.9364   5.2394   5.2435   5.2480   5.7239   5.7241
     6.9356   6.9363   6.9368   7.3711   7.3768   7.3823   7.5987   7.8573
     7.8620   7.8663   7.9915   7.9917   7.9918   8.1474   8.1516   8.1549
     8.1664   8.1691   8.1720   8.3959   8.3982   8.4010   8.4040   8.4065
     8.4088   8.4481

          k =-0.2500 0.2500-0.2500 ( 52563 PWs)   bands (ev):

    -5.6250  -5.1000  -5.0963  -5.0927  -4.6004  -4.5968  -4.5931  -4.1633
    -4.0669  -4.0633  -4.0597  -3.6547  -3.6494  -3.6475  -3.6465  -3.6447
    -3.6397  -3.4571  -3.4549  -3.4523  -2.9625  -2.9585  -2.9546  -2.5942
    -2.5892  -2.5843  -2.4282  -2.4229  -2.4209  -2.4208  -2.4186  -2.4131
    -0.8876  -0.8812  -0.8785  -0.8778  -0.8754  -0.8692  -0.7864  -0.7805
    -0.7747  -0.6649  -0.6624  -0.6592  -0.5836  -0.5762  -0.5684   0.1262
     0.2016   0.2062   0.2101   0.2113   0.2158   0.2197   1.0782   1.0854
     1.0924   1.4162   1.4184   1.4205   2.0247   2.0272   2.0284   2.0300
     2.0312   2.0335   2.0858   2.0880   2.0905   2.6374   2.6402   2.6426
     2.7373   2.7391   2.7426   2.7440   2.7475   2.7487   2.7931   2.7963
     2.7998   3.1016   3.1046   3.1070   3.1082   3.1106   3.1134   3.3712
     3.3718   3.3720   3.3844   3.3864   3.3880   3.7301   3.7344   3.7387
     3.7539   3.7563   3.7599   3.8366   3.8394   3.8426   4.1076   4.1113
     4.1139   4.1146   4.1168   4.1210   4.1503   4.1536   4.1573   4.4133
     4.4706   4.4709   4.4712   4.7113   4.7144   4.7178   4.7726   4.7787
     4.7856   4.9361   4.9363   5.2393   5.2435   5.2479   5.7239   5.7241
     6.9357   6.9363   6.9367   7.3711   7.3768   7.3823   7.5987   7.8573
     7.8619   7.8663   7.9884   7.9919   7.9947   8.1473   8.1518   8.1546
     8.1690   8.1691   8.1701   8.3954   8.3971   8.4023   8.4026   8.4073
     8.4093   8.4483

          k = 0.2500-0.2500-0.2500 ( 52563 PWs)   bands (ev):

    -5.6250  -5.1005  -5.0963  -5.0922  -4.6009  -4.5966  -4.5927  -4.1633
    -4.0676  -4.0633  -4.0590  -3.6569  -3.6498  -3.6477  -3.6462  -3.6443
    -3.6374  -3.4601  -3.4548  -3.4496  -2.9637  -2.9585  -2.9535  -2.5944
    -2.5892  -2.5842  -2.4300  -2.4233  -2.4217  -2.4200  -2.4182  -2.4115
    -0.8861  -0.8805  -0.8786  -0.8777  -0.8767  -0.8708  -0.7848  -0.7802
    -0.7756  -0.6658  -0.6622  -0.6586  -0.5811  -0.5762  -0.5709   0.1262
     0.2033   0.2085   0.2096   0.2119   0.2130   0.2183   1.0800   1.0854
     1.0906   1.4161   1.4183   1.4207   2.0251   2.0262   2.0288   2.0296
     2.0323   2.0328   2.0865   2.0881   2.0902   2.6377   2.6401   2.6424
     2.7367   2.7392   2.7416   2.7449   2.7472   2.7493   2.7938   2.7962
     2.7993   3.1030   3.1044   3.1062   3.1090   3.1109   3.1119   3.3697
     3.3717   3.3736   3.3840   3.3865   3.3883   3.7307   3.7347   3.7377
     3.7518   3.7567   3.7618   3.8371   3.8395   3.8419   4.1054   4.1110
     4.1141   4.1144   4.1175   4.1225   4.1511   4.1538   4.1567   4.4131
     4.4685   4.4709   4.4735   4.7118   4.7145   4.7172   4.7742   4.7787
     4.7839   4.9362   4.9364   5.2402   5.2435   5.2470   5.7239   5.7242
     6.9322   6.9362   6.9402   7.3729   7.3768   7.3805   7.5987   7.8586
     7.8620   7.8649   7.9870   7.9917   7.9964   8.1475   8.1515   8.1546
     8.1660   8.1692   8.1726   8.3957   8.3980   8.4022   8.4028   8.4065
     8.4088   8.4483

     the Fermi energy is     6.3276 ev

!    total energy              =   -2990.53155412 Ry
     Harris-Foulkes estimate   =   -2990.53155412 Ry
     estimated scf accuracy    <          3.8E-10 Ry

     total all-electron energy =    -37124.667107 Ry

     The total energy is the sum of the following terms:

     one-electron contribution =     178.60676563 Ry
     hartree contribution      =      35.70132572 Ry
     xc contribution           =    -391.44199721 Ry
     ewald contribution        =    -534.00634242 Ry
     one-center paw contrib.   =   -2279.39130584 Ry
     smearing contrib. (-TS)   =       0.00000000 Ry

     convergence has been achieved in  13 iterations

     Forces acting on atoms (Ry/au):

     atom    1 type  1   force =    -0.01586261   -0.00002665    0.00002686
     atom    2 type  1   force =    -0.00003732   -0.00003889    0.00004967
     atom    3 type  1   force =     0.00004224   -0.00003837    0.00003861
     atom    4 type  1   force =     0.00392215   -0.00270469    0.00270519
     atom    5 type  1   force =     0.00003265   -0.00003073    0.00003088
     atom    6 type  1   force =     0.00024917   -0.00002813    0.00002838
     atom    7 type  1   force =    -0.00044910   -0.00002686    0.00002457
     atom    8 type  1   force =    -0.00003569   -0.00005005    0.00003886
     atom    9 type  1   force =    -0.00054097    0.00015259    0.00007642
     atom   10 type  1   force =     0.00393008    0.00271455   -0.00269660
     atom   11 type  1   force =    -0.00049798    0.00013421   -0.00013628
     atom   12 type  1   force =    -0.00005935    0.00004810   -0.00006078
     atom   13 type  1   force =    -0.00049744   -0.00008308    0.00008458
     atom   14 type  1   force =    -0.00005991    0.00004041   -0.00002838
     atom   15 type  1   force =    -0.00054981   -0.00008320   -0.00014521
     atom   16 type  1   force =     0.00025591    0.00001838   -0.00003632
     atom   17 type  1   force =     0.00025965   -0.00008327    0.00025560
     atom   18 type  1   force =     0.00017975   -0.00007596   -0.00018201
     atom   19 type  1   force =     0.00002996    0.00002801   -0.00003950
     atom   20 type  1   force =     0.00385455    0.00247193    0.00255789
     atom   21 type  1   force =     0.00021075    0.00014059   -0.00019627
     atom   22 type  1   force =     0.00049026    0.00014154    0.00026133
     atom   23 type  1   force =     0.00007140    0.00003849    0.00010435
     atom   24 type  1   force =    -0.00001616    0.00006119   -0.00003918
     atom   25 type  1   force =     0.00021956    0.00018988   -0.00014781
     atom   26 type  1   force =     0.00405095   -0.00271483   -0.00259380
     atom   27 type  1   force =     0.00026056   -0.00025454    0.00008069
     atom   28 type  1   force =     0.00017870    0.00019586    0.00006259
     atom   29 type  1   force =     0.00007023   -0.00010543   -0.00003611
     atom   30 type  1   force =    -0.00001528    0.00002503   -0.00004726
     atom   31 type  1   force =     0.00002115    0.00004595   -0.00002109
     atom   32 type  1   force =     0.00029559   -0.00010426   -0.00001816
     atom   33 type  1   force =     0.00021635    0.00014578   -0.00020189
     atom   34 type  1   force =     0.00048747    0.00013740    0.00025513
     atom   35 type  1   force =     0.00006918    0.00003598    0.00010098
     atom   36 type  1   force =    -0.00001792    0.00005958   -0.00003867
     atom   37 type  1   force =     0.00026449   -0.00008865    0.00025992
     atom   38 type  1   force =     0.00017100   -0.00007144   -0.00017694
     atom   39 type  1   force =     0.00003112    0.00002834   -0.00003780
     atom   40 type  1   force =     0.00397130    0.00269603    0.00278284
     atom   41 type  1   force =     0.00022592    0.00019489   -0.00015289
     atom   42 type  1   force =     0.00415876   -0.00293249   -0.00281636
     atom   43 type  1   force =     0.00026476   -0.00025796    0.00008643
     atom   44 type  1   force =     0.00017079    0.00018861    0.00005999
     atom   45 type  1   force =     0.00006920   -0.00010284   -0.00003363
     atom   46 type  1   force =    -0.00001775    0.00002742   -0.00004859
     atom   47 type  1   force =     0.00002167    0.00004483   -0.00002101
     atom   48 type  1   force =     0.00029832   -0.00010538   -0.00001852
     atom   49 type  1   force =    -0.00003614   -0.00003694    0.00005161
     atom   50 type  1   force =    -0.01586406   -0.00002541    0.00002902
     atom   51 type  1   force =     0.00380469   -0.00248166    0.00248137
     atom   52 type  1   force =     0.00004227   -0.00003810    0.00003680
     atom   53 type  1   force =     0.00024562   -0.00002783    0.00002736
     atom   54 type  1   force =     0.00003348   -0.00003034    0.00003093
     atom   55 type  1   force =    -0.00003401   -0.00005185    0.00003753
     atom   56 type  1   force =    -0.00044664   -0.00002921    0.00002756
     atom   57 type  1   force =    -0.00005968    0.00004284   -0.00002807
     atom   58 type  1   force =    -0.00049914   -0.00008436    0.00008668
     atom   59 type  1   force =     0.00025296    0.00001748   -0.00003753
     atom   60 type  1   force =    -0.00054454   -0.00007910   -0.00014065
     atom   61 type  1   force =     0.00381233    0.00249207   -0.00247201
     atom   62 type  1   force =    -0.00053650    0.00014692    0.00007211
     atom   63 type  1   force =    -0.00005839    0.00004641   -0.00006060
     atom   64 type  1   force =    -0.00050054    0.00014117   -0.00014279

     Total force =     0.027295     Total SCF correction =     0.000038

     Writing output data file pwscf.save
 
     init_run     :      8.73s CPU      8.86s WALL (       1 calls)
     electrons    :    281.77s CPU    292.83s WALL (       1 calls)
     forces       :      4.12s CPU      4.25s WALL (       1 calls)

     Called by init_run:
     wfcinit      :      8.15s CPU      8.24s WALL (       1 calls)
     potinit      :      0.24s CPU      0.24s WALL (       1 calls)

     Called by electrons:
     c_bands      :    253.68s CPU    261.24s WALL (      14 calls)
     sum_band     :     23.95s CPU     24.14s WALL (      14 calls)
     v_of_rho     :      0.70s CPU      0.70s WALL (      14 calls)
     newd         :      0.98s CPU      1.02s WALL (      14 calls)
     PAW_pot      :      2.31s CPU      2.31s WALL (      14 calls)
     mix_rho      :      0.32s CPU      0.32s WALL (      14 calls)

     Called by c_bands:
     init_us_2    :      2.63s CPU      2.68s WALL (     120 calls)
     cegterg      :    248.32s CPU    252.43s WALL (      56 calls)

     Called by sum_band:
     sum_band:bec :      0.05s CPU      0.05s WALL (      56 calls)
     addusdens    :      1.02s CPU      1.11s WALL (      14 calls)

     Called by *egterg:
     h_psi        :    116.55s CPU    116.96s WALL (     255 calls)
     s_psi        :     30.28s CPU     30.35s WALL (     255 calls)
     g_psi        :      1.06s CPU      1.06s WALL (     195 calls)
     cdiaghg      :     38.36s CPU     38.43s WALL (     247 calls)

     Called by h_psi:
     add_vuspsi   :     30.42s CPU     30.50s WALL (     255 calls)

     General routines
     calbec       :     46.69s CPU     46.81s WALL (     327 calls)
     fft          :      0.44s CPU      0.45s WALL (     195 calls)
     fftw         :     56.79s CPU     57.05s WALL (   57094 calls)
     davcio       :      0.00s CPU      0.04s WALL (       4 calls)
 
     Parallel routines
     fft_scatter  :     13.06s CPU     12.89s WALL (   57289 calls)
 
     PWSCF        :  4m54.96s CPU     5m18.19s WALL

 
   This run was terminated on:  13:52:45   3Feb2016            

=------------------------------------------------------------------------------=
   JOB DONE.
=------------------------------------------------------------------------------=
