
     Program PWSCF v.5.3.0 (svn rev. 11974) starts on  3Feb2016 at 13:44:42 

     This program is part of the open-source Quantum ESPRESSO suite
     for quantum simulation of materials; please cite
         "P. Giannozzi et al., J. Phys.:Condens. Matter 21 395502 (2009);
          URL http://www.quantum-espresso.org", 
     in publications or presentations arising from this work. More details at
     http://www.quantum-espresso.org/quote

     Parallel version (MPI), running on    16 processors
     R & G space division:  proc/nbgrp/npool/nimage =      16
     Reading input from Si.in

     Current dimensions of program PWSCF are:
     Max number of different atomic species (ntypx) = 10
     Max number of k-points (npk) =  40000
     Max angular momentum in pseudopotentials (lmaxx) =  3
               file Si.pbe-n-kjpaw_psl.0.1.UPF: wavefunction(s)  3S renormalized

     Subspace diagonalization in iterative solution of the eigenvalue problem:
     one sub-group per k-point group (pool) will be used
     scalapack distributed-memory algorithm (size of sub-group:  2*  2 procs)

 
     Parallelization info
     --------------------
     sticks:   dense  smooth     PW     G-vecs:    dense   smooth      PW
     Min         424     424    109                26332    26332    3467
     Max         425     425    110                26336    26336    3472
     Sum        6785    6785   1757               421349   421349   55515
 


     bravais-lattice index     =            0
     lattice parameter (alat)  =      20.6591  a.u.
     unit-cell volume          =    8817.2783 (a.u.)^3
     number of atoms/cell      =           64
     number of atomic types    =            1
     number of electrons       =       256.00
     number of Kohn-Sham states=          154
     kinetic-energy cutoff     =      50.0000  Ry
     charge density cutoff     =     200.0000  Ry
     convergence threshold     =      1.0E-09
     mixing beta               =       0.7000
     number of iterations used =            8  plain     mixing
     Exchange-correlation      =  SLA  PW   PBX  PBC ( 1  4  3  4 0 0)

     celldm(1)=  20.659106  celldm(2)=   0.000000  celldm(3)=   0.000000
     celldm(4)=   0.000000  celldm(5)=   0.000000  celldm(6)=   0.000000

     crystal axes: (cart. coord. in units of alat)
               a(1) = (   1.000000   0.000000   0.000000 )  
               a(2) = (   0.000000   1.000000   0.000000 )  
               a(3) = (   0.000000   0.000000   1.000000 )  

     reciprocal axes: (cart. coord. in units 2 pi/alat)
               b(1) = (  1.000000  0.000000  0.000000 )  
               b(2) = (  0.000000  1.000000  0.000000 )  
               b(3) = (  0.000000  0.000000  1.000000 )  


     PseudoPot. # 1 for Si read from file:
     /home/togo/espresso/pseudo/Si.pbe-n-kjpaw_psl.0.1.UPF
     MD5 check sum: b9d333a40e496bef61db012f150758bf
     Pseudo is Projector augmented-wave + core cor, Zval =  4.0
     Generated using "atomic" code by A. Dal Corso  v.5.0.2 svn rev. 9415
     Shape of augmentation charge: PSQ
     Using radial grid of 1141 points,  4 beta functions with: 
                l(1) =   0
                l(2) =   0
                l(3) =   1
                l(4) =   1
     Q(r) pseudized with 0 coefficients 


     atomic species   valence    mass     pseudopotential
        Si             4.00    28.08550     Si( 1.00)

     No symmetry found



   Cartesian axes

     site n.     atom                  positions (alat units)
         1           Si  tau(   1) = (   0.4404043   0.4375000   0.4375000  )
         2           Si  tau(   2) = (   0.9375000   0.4375000   0.4375000  )
         3           Si  tau(   3) = (   0.4375000   0.9375000   0.4375000  )
         4           Si  tau(   4) = (   0.9375000   0.9375000   0.4375000  )
         5           Si  tau(   5) = (   0.4375000   0.4375000   0.9375000  )
         6           Si  tau(   6) = (   0.9375000   0.4375000   0.9375000  )
         7           Si  tau(   7) = (   0.4375000   0.9375000   0.9375000  )
         8           Si  tau(   8) = (   0.9375000   0.9375000   0.9375000  )
         9           Si  tau(   9) = (   0.4375000   0.1875000   0.1875000  )
        10           Si  tau(  10) = (   0.9375000   0.1875000   0.1875000  )
        11           Si  tau(  11) = (   0.4375000   0.6875000   0.1875000  )
        12           Si  tau(  12) = (   0.9375000   0.6875000   0.1875000  )
        13           Si  tau(  13) = (   0.4375000   0.1875000   0.6875000  )
        14           Si  tau(  14) = (   0.9375000   0.1875000   0.6875000  )
        15           Si  tau(  15) = (   0.4375000   0.6875000   0.6875000  )
        16           Si  tau(  16) = (   0.9375000   0.6875000   0.6875000  )
        17           Si  tau(  17) = (   0.1875000   0.4375000   0.1875000  )
        18           Si  tau(  18) = (   0.6875000   0.4375000   0.1875000  )
        19           Si  tau(  19) = (   0.1875000   0.9375000   0.1875000  )
        20           Si  tau(  20) = (   0.6875000   0.9375000   0.1875000  )
        21           Si  tau(  21) = (   0.1875000   0.4375000   0.6875000  )
        22           Si  tau(  22) = (   0.6875000   0.4375000   0.6875000  )
        23           Si  tau(  23) = (   0.1875000   0.9375000   0.6875000  )
        24           Si  tau(  24) = (   0.6875000   0.9375000   0.6875000  )
        25           Si  tau(  25) = (   0.1875000   0.1875000   0.4375000  )
        26           Si  tau(  26) = (   0.6875000   0.1875000   0.4375000  )
        27           Si  tau(  27) = (   0.1875000   0.6875000   0.4375000  )
        28           Si  tau(  28) = (   0.6875000   0.6875000   0.4375000  )
        29           Si  tau(  29) = (   0.1875000   0.1875000   0.9375000  )
        30           Si  tau(  30) = (   0.6875000   0.1875000   0.9375000  )
        31           Si  tau(  31) = (   0.1875000   0.6875000   0.9375000  )
        32           Si  tau(  32) = (   0.6875000   0.6875000   0.9375000  )
        33           Si  tau(  33) = (   0.0625000   0.0625000   0.0625000  )
        34           Si  tau(  34) = (   0.5625000   0.0625000   0.0625000  )
        35           Si  tau(  35) = (   0.0625000   0.5625000   0.0625000  )
        36           Si  tau(  36) = (   0.5625000   0.5625000   0.0654043  )
        37           Si  tau(  37) = (   0.0625000   0.0625000   0.5625000  )
        38           Si  tau(  38) = (   0.5625000   0.0625000   0.5625000  )
        39           Si  tau(  39) = (   0.0625000   0.5625000   0.5625000  )
        40           Si  tau(  40) = (   0.5625000   0.5625000   0.5625000  )
        41           Si  tau(  41) = (   0.0625000   0.3125000   0.3125000  )
        42           Si  tau(  42) = (   0.5625000   0.3125000   0.3125000  )
        43           Si  tau(  43) = (   0.0625000   0.8125000   0.3125000  )
        44           Si  tau(  44) = (   0.5625000   0.8125000   0.3125000  )
        45           Si  tau(  45) = (   0.0625000   0.3125000   0.8125000  )
        46           Si  tau(  46) = (   0.5625000   0.3125000   0.8125000  )
        47           Si  tau(  47) = (   0.0625000   0.8125000   0.8125000  )
        48           Si  tau(  48) = (   0.5625000   0.8125000   0.8125000  )
        49           Si  tau(  49) = (   0.3125000   0.0625000   0.3125000  )
        50           Si  tau(  50) = (   0.8125000   0.0625000   0.3125000  )
        51           Si  tau(  51) = (   0.3125000   0.5625000   0.3125000  )
        52           Si  tau(  52) = (   0.8125000   0.5625000   0.3125000  )
        53           Si  tau(  53) = (   0.3125000   0.0625000   0.8125000  )
        54           Si  tau(  54) = (   0.8125000   0.0625000   0.8125000  )
        55           Si  tau(  55) = (   0.3125000   0.5625000   0.8125000  )
        56           Si  tau(  56) = (   0.8125000   0.5625000   0.8125000  )
        57           Si  tau(  57) = (   0.3125000   0.3125000   0.0625000  )
        58           Si  tau(  58) = (   0.8125000   0.3125000   0.0625000  )
        59           Si  tau(  59) = (   0.3125000   0.8125000   0.0625000  )
        60           Si  tau(  60) = (   0.8125000   0.8125000   0.0625000  )
        61           Si  tau(  61) = (   0.3125000   0.3125000   0.5625000  )
        62           Si  tau(  62) = (   0.8125000   0.3125000   0.5625000  )
        63           Si  tau(  63) = (   0.3125000   0.8125000   0.5625000  )
        64           Si  tau(  64) = (   0.8125000   0.8125000   0.5625000  )

     number of k points=     4  gaussian smearing, width (Ry)=  0.0100
                       cart. coord. in units 2pi/alat
        k(    1) = (   0.2500000   0.2500000   0.2500000), wk =   0.5000000
        k(    2) = (  -0.2500000  -0.2500000   0.2500000), wk =   0.5000000
        k(    3) = (  -0.2500000   0.2500000  -0.2500000), wk =   0.5000000
        k(    4) = (   0.2500000  -0.2500000  -0.2500000), wk =   0.5000000

     Dense  grid:   421349 G-vectors     FFT dimensions: (  96,  96,  96)

     Largest allocated arrays     est. size (Mb)     dimensions
        Kohn-Sham Wavefunctions         7.73 Mb     (    3289,  154)
        NL pseudopotentials            25.70 Mb     (    3289,  512)
        Each V/rho on FFT grid          0.84 Mb     (   55296)
        Each G-vector array             0.20 Mb     (   26336)
        G-vector shells                 0.01 Mb     (    1719)
     Largest temporary arrays     est. size (Mb)     dimensions
        Auxiliary wavefunctions        30.91 Mb     (    3289,  616)
        Each subspace H/S matrix        1.45 Mb     (     308,  308)
        Each <psi_i|beta_j> matrix      1.20 Mb     (     512,  154)
        Arrays for rho mixing           6.75 Mb     (   55296,    8)

     Check: negative/imaginary core charge=   -0.000001    0.000000

     Initial potential from superposition of free atoms

     starting charge  255.96421, renormalised to  256.00000
     Starting wfc are  256 randomized atomic wfcs
     Checking if some PAW data can be deallocated... 

     total cpu time spent up to now is       10.1 secs

     per-process dynamical memory:   114.8 Mb

     Self-consistent Calculation

     iteration #  1     ecut=    50.00 Ry     beta=0.70
     Davidson diagonalization with overlap
     ethr =  1.00E-02,  avg # of iterations =  3.0

     Threshold (ethr) on eigenvalues was too large:
     Diagonalizing with lowered threshold

     Davidson diagonalization with overlap
     ethr =  7.00E-04,  avg # of iterations =  1.0

     total cpu time spent up to now is       64.2 secs

     total energy              =   -2990.45695321 Ry
     Harris-Foulkes estimate   =   -2990.87679687 Ry
     estimated scf accuracy    <       1.77309317 Ry

     iteration #  2     ecut=    50.00 Ry     beta=0.70
     Davidson diagonalization with overlap
     ethr =  6.93E-04,  avg # of iterations =  1.0

     total cpu time spent up to now is       78.4 secs

     total energy              =   -2990.52359962 Ry
     Harris-Foulkes estimate   =   -2990.52748933 Ry
     estimated scf accuracy    <       0.07634825 Ry

     iteration #  3     ecut=    50.00 Ry     beta=0.70
     Davidson diagonalization with overlap
     ethr =  2.98E-05,  avg # of iterations = 11.5

     total cpu time spent up to now is      113.7 secs

     total energy              =   -2990.53057455 Ry
     Harris-Foulkes estimate   =   -2990.53138338 Ry
     estimated scf accuracy    <       0.00198540 Ry

     iteration #  4     ecut=    50.00 Ry     beta=0.70
     Davidson diagonalization with overlap
     ethr =  7.76E-07,  avg # of iterations =  5.5

     total cpu time spent up to now is      148.7 secs

     total energy              =   -2990.53038978 Ry
     Harris-Foulkes estimate   =   -2990.53272258 Ry
     estimated scf accuracy    <       0.00721429 Ry

     iteration #  5     ecut=    50.00 Ry     beta=0.70
     Davidson diagonalization with overlap
     ethr =  7.76E-07,  avg # of iterations =  4.8

     total cpu time spent up to now is      174.4 secs

     total energy              =   -2990.53147819 Ry
     Harris-Foulkes estimate   =   -2990.53160924 Ry
     estimated scf accuracy    <       0.00038185 Ry

     iteration #  6     ecut=    50.00 Ry     beta=0.70
     Davidson diagonalization with overlap
     ethr =  1.49E-07,  avg # of iterations =  2.0

     total cpu time spent up to now is      191.7 secs

     total energy              =   -2990.53154464 Ry
     Harris-Foulkes estimate   =   -2990.53156144 Ry
     estimated scf accuracy    <       0.00004805 Ry

     iteration #  7     ecut=    50.00 Ry     beta=0.70
     Davidson diagonalization with overlap
     ethr =  1.88E-08,  avg # of iterations =  3.0

     total cpu time spent up to now is      211.2 secs

     total energy              =   -2990.53155353 Ry
     Harris-Foulkes estimate   =   -2990.53155564 Ry
     estimated scf accuracy    <       0.00000489 Ry

     iteration #  8     ecut=    50.00 Ry     beta=0.70
     Davidson diagonalization with overlap
     ethr =  1.91E-09,  avg # of iterations =  3.0

     total cpu time spent up to now is      234.2 secs

     total energy              =   -2990.53155478 Ry
     Harris-Foulkes estimate   =   -2990.53155503 Ry
     estimated scf accuracy    <       0.00000061 Ry

     iteration #  9     ecut=    50.00 Ry     beta=0.70
     Davidson diagonalization with overlap
     ethr =  2.39E-10,  avg # of iterations =  3.0

     total cpu time spent up to now is      264.4 secs

     total energy              =   -2990.53155483 Ry
     Harris-Foulkes estimate   =   -2990.53155494 Ry
     estimated scf accuracy    <       0.00000023 Ry

     iteration # 10     ecut=    50.00 Ry     beta=0.70
     Davidson diagonalization with overlap
     ethr =  8.85E-11,  avg # of iterations =  2.0

     total cpu time spent up to now is      281.5 secs

     total energy              =   -2990.53155481 Ry
     Harris-Foulkes estimate   =   -2990.53155488 Ry
     estimated scf accuracy    <       0.00000006 Ry

     iteration # 11     ecut=    50.00 Ry     beta=0.70
     Davidson diagonalization with overlap
     ethr =  2.34E-11,  avg # of iterations =  2.0

     total cpu time spent up to now is      299.3 secs

     total energy              =   -2990.53155483 Ry
     Harris-Foulkes estimate   =   -2990.53155482 Ry
     estimated scf accuracy    <          1.7E-09 Ry

     iteration # 12     ecut=    50.00 Ry     beta=0.70
     Davidson diagonalization with overlap
     ethr =  6.54E-13,  avg # of iterations =  3.0

     total cpu time spent up to now is      326.4 secs

     total energy              =   -2990.53155483 Ry
     Harris-Foulkes estimate   =   -2990.53155483 Ry
     estimated scf accuracy    <          1.6E-09 Ry

     iteration # 13     ecut=    50.00 Ry     beta=0.70
     Davidson diagonalization with overlap
     ethr =  6.21E-13,  avg # of iterations =  2.2

     total cpu time spent up to now is      345.2 secs

     End of self-consistent calculation

          k = 0.2500 0.2500 0.2500 ( 52563 PWs)   bands (ev):

    -5.6250  -5.1005  -5.0962  -5.0922  -4.6007  -4.5967  -4.5928  -4.1632
    -4.0676  -4.0634  -4.0590  -3.6548  -3.6497  -3.6490  -3.6469  -3.6443
    -3.6376  -3.4590  -3.4548  -3.4506  -2.9630  -2.9592  -2.9535  -2.5931
    -2.5891  -2.5855  -2.4287  -2.4233  -2.4225  -2.4209  -2.4183  -2.4109
    -0.8871  -0.8813  -0.8802  -0.8780  -0.8748  -0.8688  -0.7838  -0.7805
    -0.7769  -0.6675  -0.6621  -0.6569  -0.5827  -0.5772  -0.5682   0.1263
     0.2032   0.2069   0.2082   0.2108   0.2152   0.2203   1.0801   1.0846
     1.0913   1.4140   1.4181   1.4228   2.0237   2.0262   2.0290   2.0304
     2.0319   2.0337   2.0851   2.0876   2.0919   2.6383   2.6401   2.6418
     2.7370   2.7393   2.7423   2.7448   2.7464   2.7490   2.7920   2.7970
     2.8005   3.1015   3.1052   3.1066   3.1073   3.1107   3.1140   3.3689
     3.3720   3.3737   3.3818   3.3869   3.3906   3.7307   3.7346   3.7386
     3.7538   3.7565   3.7591   3.8365   3.8386   3.8435   4.1063   4.1115
     4.1135   4.1147   4.1166   4.1225   4.1502   4.1528   4.1584   4.4132
     4.4678   4.4708   4.4743   4.7109   4.7136   4.7188   4.7735   4.7783
     4.7852   4.9319   4.9406   5.2387   5.2426   5.2494   5.7191   5.7289
     6.9324   6.9363   6.9400   7.3726   7.3751   7.3825   7.5987   7.8579
     7.8607   7.8670   7.9877   7.9917   7.9956   8.1471   8.1514   8.1548
     8.1658   8.1692   8.1734   8.3960   8.3989   8.4009   8.4022   8.4062
     8.4100   8.4482

          k =-0.2500-0.2500 0.2500 ( 52563 PWs)   bands (ev):

    -5.6251  -5.0994  -5.0960  -5.0934  -4.5998  -4.5964  -4.5941  -4.1641
    -4.0672  -4.0632  -4.0608  -3.6529  -3.6502  -3.6476  -3.6473  -3.6422
    -3.6393  -3.4576  -3.4549  -3.4498  -2.9648  -2.9588  -2.9578  -2.5924
    -2.5890  -2.5852  -2.4269  -2.4246  -2.4215  -2.4210  -2.4166  -2.4121
    -0.8853  -0.8837  -0.8787  -0.8783  -0.8758  -0.8709  -0.7847  -0.7810
    -0.7785  -0.6680  -0.6622  -0.6612  -0.5775  -0.5745  -0.5632   0.1300
     0.2026   0.2058   0.2097   0.2105   0.2122   0.2148   1.0828   1.0859
     1.0947   1.4151   1.4183   1.4215   2.0249   2.0262   2.0282   2.0299
     2.0310   2.0337   2.0844   2.0875   2.0896   2.6401   2.6424   2.6436
     2.7367   2.7382   2.7408   2.7418   2.7459   2.7473   2.7913   2.7938
     2.7979   3.1031   3.1066   3.1069   3.1079   3.1100   3.1120   3.3688
     3.3698   3.3723   3.3824   3.3857   3.3875   3.7338   3.7364   3.7389
     3.7560   3.7597   3.7638   3.8363   3.8381   3.8408   4.1126   4.1136
     4.1139   4.1163   4.1193   4.1253   4.1502   4.1521   4.1555   4.4170
     4.4669   4.4679   4.4714   4.7099   4.7125   4.7150   4.7790   4.7810
     4.7912   4.9325   4.9376   5.2374   5.2408   5.2442   5.7188   5.7244
     6.9318   6.9338   6.9380   7.3714   7.3764   7.3801   7.5972   7.8563
     7.8605   7.8639   7.9892   7.9938   7.9964   8.1463   8.1522   8.1538
     8.1661   8.1681   8.1714   8.3993   8.4010   8.4021   8.4045   8.4080
     8.4100   8.4459

          k =-0.2500 0.2500-0.2500 ( 52563 PWs)   bands (ev):

    -5.6250  -5.1009  -5.0955  -5.0926  -4.6012  -4.5960  -4.5931  -4.1631
    -4.0681  -4.0623  -4.0596  -3.6557  -3.6499  -3.6482  -3.6451  -3.6449
    -3.6386  -3.4590  -3.4548  -3.4505  -2.9640  -2.9573  -2.9544  -2.5931
    -2.5891  -2.5856  -2.4289  -2.4240  -2.4222  -2.4192  -2.4183  -2.4119
    -0.8874  -0.8824  -0.8798  -0.8766  -0.8745  -0.8693  -0.7837  -0.7807
    -0.7769  -0.6675  -0.6622  -0.6568  -0.5832  -0.5763  -0.5686   0.1263
     0.2020   0.2056   0.2092   0.2127   0.2160   0.2191   1.0796   1.0857
     1.0908   1.4138   1.4186   1.4226   2.0230   2.0275   2.0288   2.0301
     2.0316   2.0339   2.0847   2.0881   2.0917   2.6378   2.6400   2.6424
     2.7378   2.7387   2.7419   2.7438   2.7470   2.7496   2.7917   2.7976
     2.8003   3.0999   3.1052   3.1079   3.1086   3.1106   3.1132   3.3701
     3.3718   3.3733   3.3819   3.3861   3.3906   3.7307   3.7344   3.7381
     3.7522   3.7565   3.7613   3.8359   3.8399   3.8428   4.1060   4.1118
     4.1136   4.1153   4.1168   4.1217   4.1495   4.1541   4.1577   4.4130
     4.4687   4.4713   4.4731   4.7104   4.7146   4.7184   4.7732   4.7787
     4.7850   4.9318   4.9406   5.2382   5.2437   5.2489   5.7191   5.7289
     6.9330   6.9360   6.9397   7.3721   7.3758   7.3823   7.5987   7.8579
     7.8607   7.8669   7.9876   7.9918   7.9956   8.1475   8.1510   8.1549
     8.1674   8.1692   8.1717   8.3948   8.3991   8.4017   8.4047   8.4062
     8.4077   8.4483

          k = 0.2500-0.2500-0.2500 ( 52563 PWs)   bands (ev):

    -5.6250  -5.1009  -5.0948  -5.0937  -4.6011  -4.5949  -4.5940  -4.1621
    -4.0674  -4.0614  -4.0601  -3.6547  -3.6537  -3.6461  -3.6444  -3.6435
    -3.6428  -3.4596  -3.4548  -3.4520  -2.9614  -2.9550  -2.9537  -2.5935
    -2.5893  -2.5860  -2.4291  -2.4256  -2.4198  -2.4188  -2.4171  -2.4160
    -0.8872  -0.8826  -0.8769  -0.8755  -0.8734  -0.8714  -0.7828  -0.7800
    -0.7761  -0.6631  -0.6618  -0.6560  -0.5860  -0.5798  -0.5753   0.1226
     0.2046   0.2061   0.2119   0.2152   0.2162   0.2197   1.0791   1.0821
     1.0876   1.4159   1.4181   1.4212   2.0248   2.0271   2.0289   2.0300
     2.0316   2.0330   2.0866   2.0902   2.0914   2.6366   2.6377   2.6401
     2.7401   2.7412   2.7422   2.7447   2.7481   2.7501   2.7956   2.7992
     2.8019   3.1015   3.1031   3.1073   3.1091   3.1105   3.1130   3.3713
     3.3735   3.3743   3.3844   3.3872   3.3904   3.7282   3.7339   3.7359
     3.7499   3.7534   3.7568   3.8380   3.8401   3.8441   4.1032   4.1083
     4.1119   4.1135   4.1155   4.1167   4.1521   4.1543   4.1589   4.4088
     4.4711   4.4739   4.4749   4.7132   4.7156   4.7205   4.7706   4.7736
     4.7782   4.9350   4.9400   5.2422   5.2452   5.2516   5.7235   5.7293
     6.9346   6.9387   6.9405   7.3733   7.3767   7.3826   7.6002   7.8598
     7.8633   7.8673   7.9872   7.9895   7.9941   8.1496   8.1515   8.1541
     8.1668   8.1710   8.1721   8.3948   8.3963   8.3999   8.4013   8.4045
     8.4064   8.4506

     the Fermi energy is     6.3277 ev

!    total energy              =   -2990.53155483 Ry
     Harris-Foulkes estimate   =   -2990.53155483 Ry
     estimated scf accuracy    <          3.4E-10 Ry

     total all-electron energy =    -37124.667108 Ry

     The total energy is the sum of the following terms:

     one-electron contribution =     178.60630229 Ry
     hartree contribution      =      35.70155559 Ry
     xc contribution           =    -391.44199722 Ry
     ewald contribution        =    -534.00610963 Ry
     one-center paw contrib.   =   -2279.39130585 Ry
     smearing contrib. (-TS)   =       0.00000000 Ry

     convergence has been achieved in  13 iterations

     Forces acting on atoms (Ry/au):

     atom    1 type  1   force =    -0.01585132    0.00003634   -0.00001279
     atom    2 type  1   force =     0.00004964    0.00002913    0.00002877
     atom    3 type  1   force =     0.00008360    0.00002686    0.00002803
     atom    4 type  1   force =     0.00002376    0.00003065   -0.00002108
     atom    5 type  1   force =     0.00253603    0.00248154    0.00381229
     atom    6 type  1   force =     0.00003035    0.00005155   -0.00005903
     atom    7 type  1   force =    -0.00042342    0.00003729   -0.00005833
     atom    8 type  1   force =     0.00005223    0.00002778    0.00025222
     atom    9 type  1   force =    -0.00057829    0.00015228    0.00005386
     atom   10 type  1   force =    -0.00002816    0.00003754    0.00026531
     atom   11 type  1   force =    -0.00322906    0.00281642    0.00382052
     atom   12 type  1   force =    -0.00003825    0.00005938   -0.00007022
     atom   13 type  1   force =    -0.00055058   -0.00008523    0.00013532
     atom   14 type  1   force =    -0.00003019    0.00002191   -0.00001150
     atom   15 type  1   force =    -0.00056677   -0.00007532   -0.00012690
     atom   16 type  1   force =    -0.00002484    0.00001704    0.00001691
     atom   17 type  1   force =     0.00027050   -0.00016022    0.00016683
     atom   18 type  1   force =     0.00294309   -0.00281905    0.00369668
     atom   19 type  1   force =     0.00007196   -0.00003753    0.00017900
     atom   20 type  1   force =     0.00009159   -0.00004837    0.00001602
     atom   21 type  1   force =     0.00025598    0.00008329   -0.00020135
     atom   22 type  1   force =     0.00027682    0.00007548    0.00022049
     atom   23 type  1   force =     0.00007447   -0.00002170    0.00005572
     atom   24 type  1   force =     0.00006890   -0.00001558   -0.00005041
     atom   25 type  1   force =     0.00020148    0.00019683   -0.00013088
     atom   26 type  1   force =     0.00020854   -0.00025990   -0.00008572
     atom   27 type  1   force =     0.00020538   -0.00025615    0.00013808
     atom   28 type  1   force =     0.00019972    0.00019522    0.00010147
     atom   29 type  1   force =     0.00001508   -0.00010471    0.00024319
     atom   30 type  1   force =    -0.00000885    0.00003913   -0.00006835
     atom   31 type  1   force =     0.00000556    0.00002541   -0.00004971
     atom   32 type  1   force =    -0.00243871   -0.00255769    0.00382178
     atom   33 type  1   force =    -0.00002080    0.00003144   -0.00044430
     atom   34 type  1   force =     0.00025525    0.00002738    0.00008298
     atom   35 type  1   force =     0.00002635    0.00002658    0.00007948
     atom   36 type  1   force =    -0.00006127    0.00005038   -0.01585168
     atom   37 type  1   force =     0.00002686    0.00002510    0.00005158
     atom   38 type  1   force =    -0.00006110    0.00003831    0.00004263
     atom   39 type  1   force =    -0.00001228    0.00003774    0.00003165
     atom   40 type  1   force =     0.00392894    0.00270620    0.00272719
     atom   41 type  1   force =    -0.00000243    0.00003829    0.00000486
     atom   42 type  1   force =     0.00404234   -0.00293796   -0.00246718
     atom   43 type  1   force =     0.00001741   -0.00010154    0.00001664
     atom   44 type  1   force =    -0.00017536    0.00019427    0.00018801
     atom   45 type  1   force =     0.00003557   -0.00010354    0.00001729
     atom   46 type  1   force =     0.00004956    0.00017715    0.00019315
     atom   47 type  1   force =    -0.00003033    0.00004572    0.00001115
     atom   48 type  1   force =     0.00014592   -0.00025501    0.00020374
     atom   49 type  1   force =     0.00001858   -0.00002809    0.00009443
     atom   50 type  1   force =    -0.00004875   -0.00003620    0.00007197
     atom   51 type  1   force =     0.00357945   -0.00236695    0.00271934
     atom   52 type  1   force =     0.00022023   -0.00015189    0.00027577
     atom   53 type  1   force =     0.00017547   -0.00001862    0.00006983
     atom   54 type  1   force =     0.00005572   -0.00004011    0.00007339
     atom   55 type  1   force =     0.00016823    0.00005854    0.00026884
     atom   56 type  1   force =    -0.00019886   -0.00013911    0.00025804
     atom   57 type  1   force =    -0.00016816   -0.00005814   -0.00056087
     atom   58 type  1   force =    -0.00008620    0.00014305   -0.00055505
     atom   59 type  1   force =     0.00036768   -0.00008646   -0.00055522
     atom   60 type  1   force =     0.00008739    0.00013997   -0.00055473
     atom   61 type  1   force =     0.00380115    0.00247185   -0.00248133
     atom   62 type  1   force =    -0.00002143    0.00004743   -0.00003774
     atom   63 type  1   force =    -0.00004900    0.00002814   -0.00005186
     atom   64 type  1   force =     0.00003766    0.00003647   -0.00002824

     Total force =     0.027178     Total SCF correction =     0.000035

     Writing output data file pwscf.save
 
     init_run     :      9.18s CPU      9.86s WALL (       1 calls)
     electrons    :    302.26s CPU    338.25s WALL (       1 calls)
     forces       :      4.53s CPU      4.70s WALL (       1 calls)

     Called by init_run:
     wfcinit      :      8.57s CPU      8.73s WALL (       1 calls)
     potinit      :      0.24s CPU      0.24s WALL (       1 calls)

     Called by electrons:
     c_bands      :    267.97s CPU    290.94s WALL (      14 calls)
     sum_band     :     29.00s CPU     38.86s WALL (      14 calls)
     v_of_rho     :      0.87s CPU      0.88s WALL (      14 calls)
     newd         :      1.71s CPU      1.78s WALL (      14 calls)
     PAW_pot      :      2.34s CPU      2.34s WALL (      14 calls)
     mix_rho      :      0.52s CPU      0.53s WALL (      14 calls)

     Called by c_bands:
     init_us_2    :      2.20s CPU      2.24s WALL (     120 calls)
     cegterg      :    260.41s CPU    268.38s WALL (      56 calls)

     Called by sum_band:
     sum_band:bec :      0.05s CPU      0.05s WALL (      56 calls)
     addusdens    :      1.76s CPU      2.05s WALL (      14 calls)

     Called by *egterg:
     h_psi        :    120.01s CPU    120.47s WALL (     248 calls)
     s_psi        :     30.70s CPU     30.75s WALL (     248 calls)
     g_psi        :      1.19s CPU      1.20s WALL (     188 calls)
     cdiaghg      :     35.59s CPU     35.69s WALL (     240 calls)

     Called by h_psi:
     add_vuspsi   :     31.09s CPU     31.16s WALL (     248 calls)

     General routines
     calbec       :     47.69s CPU     47.83s WALL (     320 calls)
     fft          :      0.64s CPU      0.66s WALL (     195 calls)
     fftw         :     60.28s CPU     60.69s WALL (   57094 calls)
     davcio       :      0.00s CPU      0.07s WALL (       4 calls)
 
     Parallel routines
     fft_scatter  :     19.72s CPU     18.95s WALL (   57289 calls)
 
     PWSCF        :  5m16.34s CPU     6m 3.45s WALL

 
   This run was terminated on:  13:50:46   3Feb2016            

=------------------------------------------------------------------------------=
   JOB DONE.
=------------------------------------------------------------------------------=
