<?xml version="1.0" encoding="ISO-8859-1"?>
<modeling>
 <generator>
  <i name="program" type="string">vasp </i>
  <i name="version" type="string">5.4.1  </i>
  <i name="subversion" type="string">05Feb16 (build Mar 26 2016 11:58:25) complex                          parallel </i>
  <i name="platform" type="string">IFC91_ompi </i>
  <i name="date" type="string">2017 03 12 </i>
  <i name="time" type="string">12:13:57 </i>
 </generator>
 <incar>
  <i type="string" name="PREC">accurate</i>
  <i type="int" name="IALGO">    38</i>
  <i type="logical" name="ADDGRID"> T  </i>
  <i type="int" name="NELMIN">     5</i>
  <i type="int" name="IBRION">    -1</i>
  <i name="EDIFF">      0.00000001</i>
  <i name="ENCUT">    300.00000000</i>
  <i type="logical" name="LREAL"> F  </i>
  <i type="int" name="ISMEAR">     0</i>
  <i name="SIGMA">      0.05000000</i>
  <i type="logical" name="LWAVE"> F  </i>
  <i type="logical" name="LCHARG"> F  </i>
  <v type="int" name="KPOINT_BSE">    -1     0     0     0</v>
 </incar>
 <kpoints>
  <generation param="Monkhorst-Pack">
   <v type="int" name="divisions">       2        2        2 </v>
   <v name="usershift">      0.00000000       0.00000000       0.00000000 </v>
   <v name="genvec1">      0.50000000       0.00000000       0.00000000 </v>
   <v name="genvec2">      0.00000000       0.50000000       0.00000000 </v>
   <v name="genvec3">      0.00000000       0.00000000       0.50000000 </v>
   <v name="shift">      0.50000000       0.50000000       0.50000000 </v>
  </generation>
  <varray name="kpointlist" >
   <v>       0.25000000       0.25000000       0.25000000 </v>
   <v>      -0.25000000       0.25000000       0.25000000 </v>
  </varray>
  <varray name="weights" >
   <v>       0.50000000 </v>
   <v>       0.50000000 </v>
  </varray>
 </kpoints>
 <parameters>
  <separator name="general" >
   <i type="string" name="SYSTEM">unknown system</i>
   <i type="logical" name="LCOMPAT"> F  </i>
  </separator>
  <separator name="electronic" >
   <i type="string" name="PREC">accura</i>
   <i name="ENMAX">    300.00000000</i>
   <i name="ENAUG">    322.06900000</i>
   <i name="EDIFF">      0.00000001</i>
   <i type="int" name="IALGO">    38</i>
   <i type="int" name="IWAVPR">    10</i>
   <i type="int" name="NBANDS">   164</i>
   <i name="NELECT">    256.00000000</i>
   <i type="int" name="TURBO">     0</i>
   <i type="int" name="IRESTART">     0</i>
   <i type="int" name="NREBOOT">     0</i>
   <i type="int" name="NMIN">     0</i>
   <i name="EREF">      0.00000000</i>
   <separator name="electronic smearing" >
    <i type="int" name="ISMEAR">     0</i>
    <i name="SIGMA">      0.05000000</i>
    <i name="KSPACING">      0.50000000</i>
    <i type="logical" name="KGAMMA"> T  </i>
   </separator>
   <separator name="electronic projectors" >
    <i type="logical" name="LREAL"> F  </i>
    <v name="ROPT">      0.00000000</v>
    <i type="int" name="LMAXPAW">  -100</i>
    <i type="int" name="LMAXMIX">     2</i>
    <i type="logical" name="NLSPLINE"> F  </i>
   </separator>
   <separator name="electronic startup" >
    <i type="int" name="ISTART">     0</i>
    <i type="int" name="ICHARG">     2</i>
    <i type="int" name="INIWAV">     1</i>
   </separator>
   <separator name="electronic spin" >
    <i type="int" name="ISPIN">     1</i>
    <i type="logical" name="LNONCOLLINEAR"> F  </i>
    <v name="MAGMOM">      1.00000000      1.00000000      1.00000000      1.00000000      1.00000000      1.00000000      1.00000000      1.00000000      1.00000000      1.00000000      1.00000000      1.00000000      1.00000000      1.00000000      1.00000000      1.00000000      1.00000000      1.00000000      1.00000000      1.00000000
      1.00000000      1.00000000      1.00000000      1.00000000      1.00000000      1.00000000      1.00000000      1.00000000      1.00000000      1.00000000      1.00000000      1.00000000      1.00000000      1.00000000      1.00000000      1.00000000      1.00000000      1.00000000      1.00000000      1.00000000
      1.00000000      1.00000000      1.00000000      1.00000000      1.00000000      1.00000000      1.00000000      1.00000000      1.00000000      1.00000000      1.00000000      1.00000000      1.00000000      1.00000000      1.00000000      1.00000000      1.00000000      1.00000000      1.00000000      1.00000000
      1.00000000      1.00000000      1.00000000      1.00000000</v>
    <i name="NUPDOWN">     -1.00000000</i>
    <i type="logical" name="LSORBIT"> F  </i>
    <v name="SAXIS">      0.00000000      0.00000000      1.00000000</v>
    <i type="logical" name="LSPIRAL"> F  </i>
    <v name="QSPIRAL">      0.00000000      0.00000000      0.00000000</v>
    <i type="logical" name="LZEROZ"> F  </i>
   </separator>
   <separator name="electronic exchange-correlation" >
    <i type="logical" name="LASPH"> F  </i>
    <i type="logical" name="LMETAGGA"> F  </i>
   </separator>
   <separator name="electronic convergence" >
    <i type="int" name="NELM">    60</i>
    <i type="int" name="NELMDL">    -5</i>
    <i type="int" name="NELMIN">     5</i>
    <i name="ENINI">    300.00000000</i>
    <separator name="electronic convergence detail" >
     <i type="logical" name="LDIAG"> T  </i>
     <i type="logical" name="LSUBROT"> F  </i>
     <i name="WEIMIN">      0.00000000</i>
     <i name="EBREAK">      0.00000000</i>
     <i name="DEPER">      0.30000000</i>
     <i type="int" name="NRMM">     4</i>
     <i name="TIME">      0.40000000</i>
    </separator>
   </separator>
   <separator name="electronic mixer" >
    <i name="AMIX">      0.40000000</i>
    <i name="BMIX">      1.00000000</i>
    <i name="AMIN">      0.10000000</i>
    <i name="AMIX_MAG">      1.60000000</i>
    <i name="BMIX_MAG">      1.00000000</i>
    <separator name="electronic mixer details" >
     <i type="int" name="IMIX">     4</i>
     <i type="logical" name="MIXFIRST"> F  </i>
     <i type="int" name="MAXMIX">   -45</i>
     <i name="WC">    100.00000000</i>
     <i type="int" name="INIMIX">     1</i>
     <i type="int" name="MIXPRE">     1</i>
     <i type="int" name="MREMOVE">     5</i>
    </separator>
   </separator>
   <separator name="electronic dipolcorrection" >
    <i type="logical" name="LDIPOL"> F  </i>
    <i type="logical" name="LMONO"> F  </i>
    <i type="int" name="IDIPOL">     0</i>
    <i name="EPSILON">      1.00000000</i>
    <v name="DIPOL">   -100.00000000   -100.00000000   -100.00000000</v>
    <i name="EFIELD">      0.00000000</i>
   </separator>
  </separator>
  <separator name="grids" >
   <i type="int" name="NGX">    64</i>
   <i type="int" name="NGY">    64</i>
   <i type="int" name="NGZ">    64</i>
   <i type="int" name="NGXF">   128</i>
   <i type="int" name="NGYF">   128</i>
   <i type="int" name="NGZF">   128</i>
   <i type="logical" name="ADDGRID"> T  </i>
  </separator>
  <separator name="ionic" >
   <i type="int" name="NSW">     0</i>
   <i type="int" name="IBRION">    -1</i>
   <i type="int" name="ISIF">     2</i>
   <i name="PSTRESS">      0.00000000</i>
   <i name="EDIFFG">      0.00000010</i>
   <i type="int" name="NFREE">     0</i>
   <i name="POTIM">      0.50000000</i>
   <i name="SMASS">     -3.00000000</i>
   <i name="SCALEE">      1.00000000</i>
  </separator>
  <separator name="ionic md" >
   <i name="TEBEG">      0.00010000</i>
   <i name="TEEND">      0.00010000</i>
   <i type="int" name="NBLOCK">     1</i>
   <i type="int" name="KBLOCK">     1</i>
   <i type="int" name="NPACO">   256</i>
   <i name="APACO">     16.00000000</i>
  </separator>
  <separator name="symmetry" >
   <i type="int" name="ISYM">     2</i>
   <i name="SYMPREC">      0.00001000</i>
  </separator>
  <separator name="dos" >
   <i type="logical" name="LORBIT"> F  </i>
   <v name="RWIGS">     -1.00000000</v>
   <i type="int" name="NEDOS">   301</i>
   <i name="EMIN">     10.00000000</i>
   <i name="EMAX">    -10.00000000</i>
   <i name="EFERMI">      0.00000000</i>
  </separator>
  <separator name="writing" >
   <i type="int" name="NWRITE">     2</i>
   <i type="logical" name="LWAVE"> F  </i>
   <i type="logical" name="LCHARG"> F  </i>
   <i type="logical" name="LPARD"> F  </i>
   <i type="logical" name="LVTOT"> F  </i>
   <i type="logical" name="LVHAR"> F  </i>
   <i type="logical" name="LELF"> F  </i>
   <i type="logical" name="LOPTICS"> F  </i>
   <v name="STM">      0.00000000      0.00000000      0.00000000      0.00000000      0.00000000      0.00000000      0.00000000</v>
  </separator>
  <separator name="performance" >
   <i type="int" name="NPAR">     4</i>
   <i type="int" name="NSIM">     4</i>
   <i type="int" name="NBLK">    -1</i>
   <i type="logical" name="LPLANE"> T  </i>
   <i type="logical" name="LSCALAPACK"> T  </i>
   <i type="logical" name="LSCAAWARE"> F  </i>
   <i type="logical" name="LSCALU"> F  </i>
   <i type="logical" name="LASYNC"> F  </i>
   <i type="logical" name="LORBITALREAL"> F  </i>
  </separator>
  <separator name="miscellaneous" >
   <i type="int" name="IDIOT">     3</i>
   <i type="logical" name="LMUSIC"> F  </i>
   <v name="POMASS">     28.08500000</v>
   <v name="DARWINR">      0.00000000</v>
   <v name="DARWINV">      1.00000000</v>
   <i type="logical" name="LCORR"> T  </i>
  </separator>
  <i type="logical" name="GGA_COMPAT"> T  </i>
  <i type="logical" name="LBERRY"> F  </i>
  <i type="int" name="ICORELEVEL">     0</i>
  <i type="logical" name="LDAU"> F  </i>
  <i type="int" name="I_CONSTRAINED_M">     0</i>
  <separator name="electronic exchange-correlation" >
   <i type="string" name="GGA">--</i>
   <i type="int" name="VOSKOWN">     0</i>
   <i type="logical" name="LHFCALC"> F  </i>
   <i type="string" name="PRECFOCK"></i>
   <i type="logical" name="LSYMGRAD"> F  </i>
   <i type="logical" name="LHFONE"> F  </i>
   <i type="logical" name="LRHFCALC"> F  </i>
   <i type="logical" name="LTHOMAS"> F  </i>
   <i type="logical" name="LMODELHF"> F  </i>
   <i name="ENCUT4O">     -1.00000000</i>
   <i type="int" name="EXXOEP">     0</i>
   <i type="int" name="FOURORBIT">     0</i>
   <i name="AEXX">      0.00000000</i>
   <i name="HFALPHA">      0.00000000</i>
   <i name="MCALPHA">      0.00000000</i>
   <i name="ALDAX">      1.00000000</i>
   <i name="AGGAX">      1.00000000</i>
   <i name="ALDAC">      1.00000000</i>
   <i name="AGGAC">      1.00000000</i>
   <i type="int" name="NKREDX">     1</i>
   <i type="int" name="NKREDY">     1</i>
   <i type="int" name="NKREDZ">     1</i>
   <i type="logical" name="SHIFTRED"> F  </i>
   <i type="logical" name="ODDONLY"> F  </i>
   <i type="logical" name="EVENONLY"> F  </i>
   <i type="int" name="LMAXFOCK">     0</i>
   <i type="int" name="NMAXFOCKAE">     0</i>
   <i type="logical" name="LFOCKAEDFT"> F  </i>
   <i name="HFSCREEN">      0.00000000</i>
   <i name="HFSCREENC">      0.00000000</i>
   <i type="int" name="NBANDSGWLOW">     0</i>
  </separator>
  <separator name="vdW DFT" >
   <i type="logical" name="LUSE_VDW"> F  </i>
   <i name="Zab_VDW">     -0.84910000</i>
   <i name="PARAM1">      0.12340000</i>
   <i name="PARAM2">      1.00000000</i>
   <i name="PARAM3">      0.00000000</i>
  </separator>
  <separator name="model GW" >
   <i type="int" name="MODEL_GW">     0</i>
   <i name="MODEL_EPS0">     12.24990743</i>
   <i name="MODEL_ALPHA">      1.00000000</i>
  </separator>
  <separator name="linear response parameters" >
   <i type="logical" name="LEPSILON"> F  </i>
   <i type="logical" name="LRPA"> F  </i>
   <i type="logical" name="LNABLA"> F  </i>
   <i type="logical" name="LVEL"> F  </i>
   <i type="int" name="KINTER">     0</i>
   <i name="CSHIFT">      0.10000000</i>
   <i name="OMEGAMAX">     -1.00000000</i>
   <i name="DEG_THRESHOLD">      0.00200000</i>
  </separator>
  <separator name="orbital magnetization" >
   <i type="logical" name="NUCIND"> F  </i>
   <v name="MAGPOS">      0.00000000      0.00000000      0.00000000</v>
   <i type="logical" name="LNICSALL"> T  </i>
   <i type="logical" name="ORBITALMAG"> F  </i>
   <i type="logical" name="LMAGBLOCH"> F  </i>
   <i type="logical" name="LCHIMAG"> F  </i>
   <i type="logical" name="LGAUGE"> T  </i>
   <i type="int" name="MAGATOM">     0</i>
   <v name="MAGDIPOL">      0.00000000      0.00000000      0.00000000</v>
   <v name="AVECCONST">      0.00000000      0.00000000      0.00000000</v>
  </separator>
  <separator name="response functions" >
   <i type="logical" name="LADDER"> F  </i>
   <i type="logical" name="LFXC"> F  </i>
   <i type="logical" name="LHARTREE"> T  </i>
   <i type="int" name="IBSE">     0</i>
   <v type="int" name="KPOINT">    -1     0     0     0</v>
   <i type="logical" name="LTCTE"> F  </i>
   <i type="logical" name="LTETE"> F  </i>
   <i type="logical" name="LTRIPLET"> F  </i>
   <i type="logical" name="LFXCEPS"> F  </i>
   <i type="logical" name="LFXHEG"> F  </i>
   <i type="int" name="NATURALO">     0</i>
   <i type="logical" name="L2ORDER"> F  </i>
   <i type="logical" name="LUSEW"> F  </i>
   <i name="ENCUTGW">     -2.00000000</i>
   <i name="ENCUTGWSOFT">     -2.00000000</i>
   <i name="ENCUTLF">     -1.00000000</i>
   <i type="int" name="LMAXMP2">    -1</i>
   <i name="SCISSOR">      0.00000000</i>
   <i type="int" name="NOMEGA">     0</i>
   <i type="int" name="NOMEGAR">     0</i>
   <i type="int" name="NBANDSGW">    -1</i>
   <i type="int" name="NBANDSO">    -1</i>
   <i type="int" name="NBANDSV">    -1</i>
   <i type="int" name="NELM">     1</i>
   <i type="int" name="NELMHF">     1</i>
   <i type="int" name="DIM">     3</i>
   <i type="int" name="ANTIRES">     0</i>
   <i name="OMEGAMAX">    -30.00000000</i>
   <i name="OMEGAMIN">    -30.00000000</i>
   <i name="OMEGATL">   -200.00000000</i>
   <i type="int" name="OMEGAGRID">     0</i>
   <i name="CSHIFT">     -0.10000000</i>
   <i type="logical" name="SELFENERGY"> F  </i>
   <i type="logical" name="LSPECTRAL"> F  </i>
   <i type="logical" name="LSPECTRALGW"> F  </i>
   <i type="logical" name="LSINGLES"> F  </i>
   <i type="logical" name="LFERMIGW"> F  </i>
   <i type="logical" name="ODDONLYGW"> F  </i>
   <i type="logical" name="EVENONLYGW"> F  </i>
   <i type="int" name="NKREDLFX">     1</i>
   <i type="int" name="NKREDLFY">     1</i>
   <i type="int" name="NKREDLFZ">     1</i>
   <i type="int" name="MAXMEM">  1800</i>
   <i type="int" name="TELESCOPE">     0</i>
   <i type="int" name="TAUPAR">     1</i>
   <i type="int" name="OMEGAPAR">    -1</i>
   <i name="LAMBDA">      1.00000000</i>
  </separator>
  <separator name="External order field" >
   <i name="OFIELD_KAPPA">      0.00000000</i>
   <v name="OFIELD_K">      0.00000000      0.00000000      0.00000000</v>
   <i name="OFIELD_Q6_NEAR">      0.00000000</i>
   <i name="OFIELD_Q6_FAR">      0.00000000</i>
   <i name="OFIELD_A">      0.00000000</i>
  </separator>
 </parameters>
 <atominfo>
  <atoms>      64 </atoms>
  <types>       1 </types>
  <array name="atoms" >
   <dimension dim="1">ion</dimension>
   <field type="string">element</field>
   <field type="int">atomtype</field>
   <set>
    <rc><c>Si</c><c>   1</c></rc>
    <rc><c>Si</c><c>   1</c></rc>
    <rc><c>Si</c><c>   1</c></rc>
    <rc><c>Si</c><c>   1</c></rc>
    <rc><c>Si</c><c>   1</c></rc>
    <rc><c>Si</c><c>   1</c></rc>
    <rc><c>Si</c><c>   1</c></rc>
    <rc><c>Si</c><c>   1</c></rc>
    <rc><c>Si</c><c>   1</c></rc>
    <rc><c>Si</c><c>   1</c></rc>
    <rc><c>Si</c><c>   1</c></rc>
    <rc><c>Si</c><c>   1</c></rc>
    <rc><c>Si</c><c>   1</c></rc>
    <rc><c>Si</c><c>   1</c></rc>
    <rc><c>Si</c><c>   1</c></rc>
    <rc><c>Si</c><c>   1</c></rc>
    <rc><c>Si</c><c>   1</c></rc>
    <rc><c>Si</c><c>   1</c></rc>
    <rc><c>Si</c><c>   1</c></rc>
    <rc><c>Si</c><c>   1</c></rc>
    <rc><c>Si</c><c>   1</c></rc>
    <rc><c>Si</c><c>   1</c></rc>
    <rc><c>Si</c><c>   1</c></rc>
    <rc><c>Si</c><c>   1</c></rc>
    <rc><c>Si</c><c>   1</c></rc>
    <rc><c>Si</c><c>   1</c></rc>
    <rc><c>Si</c><c>   1</c></rc>
    <rc><c>Si</c><c>   1</c></rc>
    <rc><c>Si</c><c>   1</c></rc>
    <rc><c>Si</c><c>   1</c></rc>
    <rc><c>Si</c><c>   1</c></rc>
    <rc><c>Si</c><c>   1</c></rc>
    <rc><c>Si</c><c>   1</c></rc>
    <rc><c>Si</c><c>   1</c></rc>
    <rc><c>Si</c><c>   1</c></rc>
    <rc><c>Si</c><c>   1</c></rc>
    <rc><c>Si</c><c>   1</c></rc>
    <rc><c>Si</c><c>   1</c></rc>
    <rc><c>Si</c><c>   1</c></rc>
    <rc><c>Si</c><c>   1</c></rc>
    <rc><c>Si</c><c>   1</c></rc>
    <rc><c>Si</c><c>   1</c></rc>
    <rc><c>Si</c><c>   1</c></rc>
    <rc><c>Si</c><c>   1</c></rc>
    <rc><c>Si</c><c>   1</c></rc>
    <rc><c>Si</c><c>   1</c></rc>
    <rc><c>Si</c><c>   1</c></rc>
    <rc><c>Si</c><c>   1</c></rc>
    <rc><c>Si</c><c>   1</c></rc>
    <rc><c>Si</c><c>   1</c></rc>
    <rc><c>Si</c><c>   1</c></rc>
    <rc><c>Si</c><c>   1</c></rc>
    <rc><c>Si</c><c>   1</c></rc>
    <rc><c>Si</c><c>   1</c></rc>
    <rc><c>Si</c><c>   1</c></rc>
    <rc><c>Si</c><c>   1</c></rc>
    <rc><c>Si</c><c>   1</c></rc>
    <rc><c>Si</c><c>   1</c></rc>
    <rc><c>Si</c><c>   1</c></rc>
    <rc><c>Si</c><c>   1</c></rc>
    <rc><c>Si</c><c>   1</c></rc>
    <rc><c>Si</c><c>   1</c></rc>
    <rc><c>Si</c><c>   1</c></rc>
    <rc><c>Si</c><c>   1</c></rc>
   </set>
  </array>
  <array name="atomtypes" >
   <dimension dim="1">type</dimension>
   <field type="int">atomspertype</field>
   <field type="string">element</field>
   <field>mass</field>
   <field>valence</field>
   <field type="string">pseudopotential</field>
   <set>
    <rc><c>  64</c><c>Si</c><c>     28.08500000</c><c>      4.00000000</c><c>  PAW_PBE Si 05Jan2001                  </c></rc>
   </set>
  </array>
 </atominfo>
 <structure name="initialpos" >
  <crystal>
   <varray name="basis" >
    <v>      10.93252578       0.00000000       0.00000000 </v>
    <v>       0.00000000      10.93252578       0.00000000 </v>
    <v>       0.00000000       0.00000000      10.93252578 </v>
   </varray>
   <i name="volume">   1306.65679237 </i>
   <varray name="rec_basis" >
    <v>       0.09147017       0.00000000       0.00000000 </v>
    <v>       0.00000000       0.09147017       0.00000000 </v>
    <v>       0.00000000       0.00000000       0.09147017 </v>
   </varray>
  </crystal>
  <varray name="positions" >
   <v>       0.44024411       0.43750000       0.43750000 </v>
   <v>       0.93750000       0.43750000       0.43750000 </v>
   <v>       0.43750000       0.93750000       0.43750000 </v>
   <v>       0.93750000       0.93750000       0.43750000 </v>
   <v>       0.43750000       0.43750000       0.93750000 </v>
   <v>       0.93750000       0.43750000       0.93750000 </v>
   <v>       0.43750000       0.93750000       0.93750000 </v>
   <v>       0.93750000       0.93750000       0.93750000 </v>
   <v>       0.43750000       0.18750000       0.18750000 </v>
   <v>       0.93750000       0.18750000       0.18750000 </v>
   <v>       0.43750000       0.68750000       0.18750000 </v>
   <v>       0.93750000       0.68750000       0.18750000 </v>
   <v>       0.43750000       0.18750000       0.68750000 </v>
   <v>       0.93750000       0.18750000       0.68750000 </v>
   <v>       0.43750000       0.68750000       0.68750000 </v>
   <v>       0.93750000       0.68750000       0.68750000 </v>
   <v>       0.18750000       0.43750000       0.18750000 </v>
   <v>       0.68475589       0.43750000       0.18750000 </v>
   <v>       0.18750000       0.93750000       0.18750000 </v>
   <v>       0.68750000       0.93750000       0.18750000 </v>
   <v>       0.18750000       0.43750000       0.68750000 </v>
   <v>       0.68750000       0.43750000       0.68750000 </v>
   <v>       0.18750000       0.93750000       0.68750000 </v>
   <v>       0.68750000       0.93750000       0.68750000 </v>
   <v>       0.18750000       0.18750000       0.43750000 </v>
   <v>       0.68750000       0.18750000       0.43750000 </v>
   <v>       0.18750000       0.68750000       0.43750000 </v>
   <v>       0.68750000       0.68750000       0.43750000 </v>
   <v>       0.18750000       0.18750000       0.93750000 </v>
   <v>       0.68750000       0.18750000       0.93750000 </v>
   <v>       0.18750000       0.68750000       0.93750000 </v>
   <v>       0.68750000       0.68750000       0.93750000 </v>
   <v>       0.06250000       0.06250000       0.06250000 </v>
   <v>       0.56250000       0.06250000       0.06250000 </v>
   <v>       0.06250000       0.56250000       0.06250000 </v>
   <v>       0.56250000       0.56250000       0.06250000 </v>
   <v>       0.06250000       0.06250000       0.56250000 </v>
   <v>       0.56250000       0.06250000       0.56250000 </v>
   <v>       0.06250000       0.56250000       0.56250000 </v>
   <v>       0.56250000       0.56250000       0.56250000 </v>
   <v>       0.06250000       0.31250000       0.31250000 </v>
   <v>       0.56250000       0.31250000       0.31250000 </v>
   <v>       0.06250000       0.81250000       0.31250000 </v>
   <v>       0.56250000       0.81250000       0.31250000 </v>
   <v>       0.06250000       0.31250000       0.81250000 </v>
   <v>       0.56250000       0.31250000       0.81250000 </v>
   <v>       0.06250000       0.81250000       0.81250000 </v>
   <v>       0.56250000       0.81250000       0.81250000 </v>
   <v>       0.31250000       0.06250000       0.31250000 </v>
   <v>       0.81250000       0.06250000       0.31250000 </v>
   <v>       0.31250000       0.56250000       0.31250000 </v>
   <v>       0.81250000       0.56250000       0.31250000 </v>
   <v>       0.31250000       0.06250000       0.81250000 </v>
   <v>       0.81250000       0.06250000       0.81250000 </v>
   <v>       0.31250000       0.56250000       0.81250000 </v>
   <v>       0.81250000       0.56250000       0.81250000 </v>
   <v>       0.31250000       0.31250000       0.06250000 </v>
   <v>       0.81250000       0.31250000       0.06250000 </v>
   <v>       0.31250000       0.81250000       0.06250000 </v>
   <v>       0.81250000       0.81250000       0.06250000 </v>
   <v>       0.31250000       0.31250000       0.56250000 </v>
   <v>       0.81250000       0.31250000       0.56250000 </v>
   <v>       0.31250000       0.81250000       0.56250000 </v>
   <v>       0.81250000       0.81250000       0.56250000 </v>
  </varray>
 </structure>
 <calculation>
  <scstep>
   <time name="dav">    2.76    2.76</time>
   <time name="total">    3.02    3.06</time>
   <energy>
    <i name="alphaZ">    105.52440745 </i>
    <i name="ewald">  -7265.46865467 </i>
    <i name="hartreedc">   -361.71467574 </i>
    <i name="XCdc">   -597.75710709 </i>
    <i name="pawpsdc">   5639.92317535 </i>
    <i name="pawaedc">  -4513.95313856 </i>
    <i name="eentropy">     -0.00032414 </i>
    <i name="bandstr">    856.97756822 </i>
    <i name="atom">   6596.14994790 </i>
    <i name="e_fr_energy">    459.68119872 </i>
    <i name="e_wo_entrp">    459.68152285 </i>
    <i name="e_0_energy">    459.68136079 </i>
   </energy>
  </scstep>
  <scstep>
   <time name="dav">    3.12    3.13</time>
   <time name="total">    3.12    3.15</time>
   <energy>
    <i name="e_fr_energy">   -298.64891210 </i>
    <i name="e_wo_entrp">   -298.64891210 </i>
    <i name="e_0_energy">   -298.64891210 </i>
   </energy>
  </scstep>
  <scstep>
   <time name="dav">    3.20    3.21</time>
   <time name="total">    3.21    3.21</time>
   <energy>
    <i name="e_fr_energy">   -350.96705479 </i>
    <i name="e_wo_entrp">   -350.96705479 </i>
    <i name="e_0_energy">   -350.96705479 </i>
   </energy>
  </scstep>
  <scstep>
   <time name="dav">    3.20    3.20</time>
   <time name="total">    3.20    3.21</time>
   <energy>
    <i name="e_fr_energy">   -352.27309313 </i>
    <i name="e_wo_entrp">   -352.27309313 </i>
    <i name="e_0_energy">   -352.27309313 </i>
   </energy>
  </scstep>
  <scstep>
   <time name="dav">    3.17    3.17</time>
   <time name="total">    3.44    3.44</time>
   <energy>
    <i name="e_fr_energy">   -352.31325932 </i>
    <i name="e_wo_entrp">   -352.31325932 </i>
    <i name="e_0_energy">   -352.31325932 </i>
   </energy>
  </scstep>
  <scstep>
   <time name="dav">    3.06    3.06</time>
   <time name="total">    3.59    3.60</time>
   <energy>
    <i name="e_fr_energy">   -348.58468860 </i>
    <i name="e_wo_entrp">   -348.58468860 </i>
    <i name="e_0_energy">   -348.58468860 </i>
   </energy>
  </scstep>
  <scstep>
   <time name="dav">    3.06    3.06</time>
   <time name="total">    3.59    3.60</time>
   <energy>
    <i name="e_fr_energy">   -346.87177171 </i>
    <i name="e_wo_entrp">   -346.87177171 </i>
    <i name="e_0_energy">   -346.87177171 </i>
   </energy>
  </scstep>
  <scstep>
   <time name="dav">    3.11    3.11</time>
   <time name="total">    3.64    3.65</time>
   <energy>
    <i name="e_fr_energy">   -346.89800224 </i>
    <i name="e_wo_entrp">   -346.89800224 </i>
    <i name="e_0_energy">   -346.89800224 </i>
   </energy>
  </scstep>
  <scstep>
   <time name="dav">    3.20    3.21</time>
   <time name="total">    3.74    3.75</time>
   <energy>
    <i name="e_fr_energy">   -346.90468667 </i>
    <i name="e_wo_entrp">   -346.90468667 </i>
    <i name="e_0_energy">   -346.90468667 </i>
   </energy>
  </scstep>
  <scstep>
   <time name="dav">    3.02    3.02</time>
   <time name="total">    3.54    3.55</time>
   <energy>
    <i name="e_fr_energy">   -346.90674742 </i>
    <i name="e_wo_entrp">   -346.90674742 </i>
    <i name="e_0_energy">   -346.90674742 </i>
   </energy>
  </scstep>
  <scstep>
   <time name="dav">    3.18    3.18</time>
   <time name="total">    3.70    3.71</time>
   <energy>
    <i name="e_fr_energy">   -346.90672109 </i>
    <i name="e_wo_entrp">   -346.90672109 </i>
    <i name="e_0_energy">   -346.90672109 </i>
   </energy>
  </scstep>
  <scstep>
   <time name="dav">    3.13    3.13</time>
   <time name="total">    3.65    3.66</time>
   <energy>
    <i name="e_fr_energy">   -346.90673631 </i>
    <i name="e_wo_entrp">   -346.90673631 </i>
    <i name="e_0_energy">   -346.90673631 </i>
   </energy>
  </scstep>
  <scstep>
   <time name="dav">    3.08    3.08</time>
   <time name="total">    3.60    3.61</time>
   <energy>
    <i name="e_fr_energy">   -346.90673684 </i>
    <i name="e_wo_entrp">   -346.90673684 </i>
    <i name="e_0_energy">   -346.90673684 </i>
   </energy>
  </scstep>
  <scstep>
   <time name="dav">    3.17    3.18</time>
   <time name="total">    3.70    3.71</time>
   <energy>
    <i name="e_fr_energy">   -346.90673743 </i>
    <i name="e_wo_entrp">   -346.90673743 </i>
    <i name="e_0_energy">   -346.90673743 </i>
   </energy>
  </scstep>
  <scstep>
   <time name="dav">    2.79    2.79</time>
   <time name="total">    3.31    3.32</time>
   <energy>
    <i name="e_fr_energy">   -346.90673717 </i>
    <i name="e_wo_entrp">   -346.90673717 </i>
    <i name="e_0_energy">   -346.90673717 </i>
   </energy>
  </scstep>
  <scstep>
   <time name="dav">    2.14    2.14</time>
   <time name="total">    2.67    2.67</time>
   <energy>
    <i name="e_fr_energy">   -346.90673725 </i>
    <i name="e_wo_entrp">   -346.90673725 </i>
    <i name="e_0_energy">   -346.90673725 </i>
   </energy>
  </scstep>
  <scstep>
   <time name="dav">    2.13    2.14</time>
   <time name="total">    2.66    2.69</time>
   <energy>
    <i name="e_fr_energy">   -346.90673723 </i>
    <i name="e_wo_entrp">   -346.90673723 </i>
    <i name="e_0_energy">   -346.90673723 </i>
   </energy>
  </scstep>
  <scstep>
   <time name="dav">    2.13    2.14</time>
   <time name="total">    2.66    2.83</time>
   <energy>
    <i name="e_fr_energy">   -346.90673725 </i>
    <i name="e_wo_entrp">   -346.90673725 </i>
    <i name="e_0_energy">   -346.90673725 </i>
   </energy>
  </scstep>
  <scstep>
   <time name="dav">    2.15    2.15</time>
   <time name="total">    2.41    2.42</time>
   <energy>
    <i name="alphaZ">    105.52440745 </i>
    <i name="ewald">  -7265.46865467 </i>
    <i name="hartreedc">   -485.14550136 </i>
    <i name="XCdc">   -577.61227564 </i>
    <i name="pawpsdc">  27883.46397636 </i>
    <i name="pawaedc"> -26764.18190518 </i>
    <i name="eentropy">      0.00000000 </i>
    <i name="bandstr">    160.36326789 </i>
    <i name="atom">   6596.14994790 </i>
    <i name="e_fr_energy">   -346.90673726 </i>
    <i name="e_wo_entrp">   -346.90673726 </i>
    <i name="e_0_energy">   -346.90673726 </i>
   </energy>
  </scstep>
  <structure>
   <crystal>
    <varray name="basis" >
     <v>      10.93252578       0.00000000       0.00000000 </v>
     <v>       0.00000000      10.93252578       0.00000000 </v>
     <v>       0.00000000       0.00000000      10.93252578 </v>
    </varray>
    <i name="volume">   1306.65679237 </i>
    <varray name="rec_basis" >
     <v>       0.09147017       0.00000000       0.00000000 </v>
     <v>       0.00000000       0.09147017       0.00000000 </v>
     <v>       0.00000000       0.00000000       0.09147017 </v>
    </varray>
   </crystal>
   <varray name="positions" >
    <v>       0.44024411       0.43750000       0.43750000 </v>
    <v>       0.93750000       0.43750000       0.43750000 </v>
    <v>       0.43750000       0.93750000       0.43750000 </v>
    <v>       0.93750000       0.93750000       0.43750000 </v>
    <v>       0.43750000       0.43750000       0.93750000 </v>
    <v>       0.93750000       0.43750000       0.93750000 </v>
    <v>       0.43750000       0.93750000       0.93750000 </v>
    <v>       0.93750000       0.93750000       0.93750000 </v>
    <v>       0.43750000       0.18750000       0.18750000 </v>
    <v>       0.93750000       0.18750000       0.18750000 </v>
    <v>       0.43750000       0.68750000       0.18750000 </v>
    <v>       0.93750000       0.68750000       0.18750000 </v>
    <v>       0.43750000       0.18750000       0.68750000 </v>
    <v>       0.93750000       0.18750000       0.68750000 </v>
    <v>       0.43750000       0.68750000       0.68750000 </v>
    <v>       0.93750000       0.68750000       0.68750000 </v>
    <v>       0.18750000       0.43750000       0.18750000 </v>
    <v>       0.68475589       0.43750000       0.18750000 </v>
    <v>       0.18750000       0.93750000       0.18750000 </v>
    <v>       0.68750000       0.93750000       0.18750000 </v>
    <v>       0.18750000       0.43750000       0.68750000 </v>
    <v>       0.68750000       0.43750000       0.68750000 </v>
    <v>       0.18750000       0.93750000       0.68750000 </v>
    <v>       0.68750000       0.93750000       0.68750000 </v>
    <v>       0.18750000       0.18750000       0.43750000 </v>
    <v>       0.68750000       0.18750000       0.43750000 </v>
    <v>       0.18750000       0.68750000       0.43750000 </v>
    <v>       0.68750000       0.68750000       0.43750000 </v>
    <v>       0.18750000       0.18750000       0.93750000 </v>
    <v>       0.68750000       0.18750000       0.93750000 </v>
    <v>       0.18750000       0.68750000       0.93750000 </v>
    <v>       0.68750000       0.68750000       0.93750000 </v>
    <v>       0.06250000       0.06250000       0.06250000 </v>
    <v>       0.56250000       0.06250000       0.06250000 </v>
    <v>       0.06250000       0.56250000       0.06250000 </v>
    <v>       0.56250000       0.56250000       0.06250000 </v>
    <v>       0.06250000       0.06250000       0.56250000 </v>
    <v>       0.56250000       0.06250000       0.56250000 </v>
    <v>       0.06250000       0.56250000       0.56250000 </v>
    <v>       0.56250000       0.56250000       0.56250000 </v>
    <v>       0.06250000       0.31250000       0.31250000 </v>
    <v>       0.56250000       0.31250000       0.31250000 </v>
    <v>       0.06250000       0.81250000       0.31250000 </v>
    <v>       0.56250000       0.81250000       0.31250000 </v>
    <v>       0.06250000       0.31250000       0.81250000 </v>
    <v>       0.56250000       0.31250000       0.81250000 </v>
    <v>       0.06250000       0.81250000       0.81250000 </v>
    <v>       0.56250000       0.81250000       0.81250000 </v>
    <v>       0.31250000       0.06250000       0.31250000 </v>
    <v>       0.81250000       0.06250000       0.31250000 </v>
    <v>       0.31250000       0.56250000       0.31250000 </v>
    <v>       0.81250000       0.56250000       0.31250000 </v>
    <v>       0.31250000       0.06250000       0.81250000 </v>
    <v>       0.81250000       0.06250000       0.81250000 </v>
    <v>       0.31250000       0.56250000       0.81250000 </v>
    <v>       0.81250000       0.56250000       0.81250000 </v>
    <v>       0.31250000       0.31250000       0.06250000 </v>
    <v>       0.81250000       0.31250000       0.06250000 </v>
    <v>       0.31250000       0.81250000       0.06250000 </v>
    <v>       0.81250000       0.81250000       0.06250000 </v>
    <v>       0.31250000       0.31250000       0.56250000 </v>
    <v>       0.81250000       0.31250000       0.56250000 </v>
    <v>       0.31250000       0.81250000       0.56250000 </v>
    <v>       0.81250000       0.81250000       0.56250000 </v>
   </varray>
  </structure>
  <varray name="forces" >
   <v>      -0.39308459      -0.00268811       0.00587171 </v>
   <v>      -0.00509826      -0.00268204      -0.00556120 </v>
   <v>       0.00029970      -0.00022842      -0.00184675 </v>
   <v>      -0.00118865      -0.00023128       0.00186291 </v>
   <v>      -0.00447759       0.00276731      -0.00568455 </v>
   <v>      -0.00582380       0.00267359       0.00556396 </v>
   <v>      -0.01257086       0.00022743       0.00184537 </v>
   <v>      -0.00043883       0.00023031      -0.00186208 </v>
   <v>      -0.01870619      -0.00297070       0.00554671 </v>
   <v>      -0.00566538       0.00578876       0.00289548 </v>
   <v>      -0.01858390       0.00835762      -0.00543971 </v>
   <v>      -0.00565645      -0.00532852      -0.00291200 </v>
   <v>      -0.01380304      -0.00082303       0.00289456 </v>
   <v>      -0.00102054      -0.00209333       0.00046421 </v>
   <v>      -0.01389951      -0.00460936      -0.00300275 </v>
   <v>      -0.00104329       0.00163716      -0.00045652 </v>
   <v>       0.00509826      -0.00268204       0.00556120 </v>
   <v>       0.39308459      -0.00268811      -0.00587171 </v>
   <v>       0.00118865      -0.00023128      -0.00186291 </v>
   <v>      -0.00029970      -0.00022842       0.00184675 </v>
   <v>       0.00582380       0.00267359      -0.00556396 </v>
   <v>       0.00447759       0.00276731       0.00568455 </v>
   <v>       0.00043883       0.00023031       0.00186208 </v>
   <v>       0.01257086       0.00022743      -0.00184537 </v>
   <v>       0.00566538       0.00578876      -0.00289548 </v>
   <v>       0.01870619      -0.00297070      -0.00554671 </v>
   <v>       0.00565645      -0.00532852       0.00291200 </v>
   <v>       0.01858390       0.00835762       0.00543971 </v>
   <v>       0.00102054      -0.00209333      -0.00046421 </v>
   <v>       0.01380304      -0.00082303      -0.00289456 </v>
   <v>       0.00104329       0.00163716       0.00045652 </v>
   <v>       0.01389951      -0.00460936       0.00300275 </v>
   <v>      -0.00115677       0.00136035       0.00010283 </v>
   <v>       0.00769176       0.00160941      -0.00053239 </v>
   <v>       0.00089573       0.00156871      -0.00030608 </v>
   <v>      -0.09727834       0.06731570      -0.06518933 </v>
   <v>       0.00115677       0.00136035      -0.00010283 </v>
   <v>      -0.00769176       0.00160941       0.00053239 </v>
   <v>      -0.00089573       0.00156871       0.00030608 </v>
   <v>       0.09727834       0.06731570       0.06518933 </v>
   <v>       0.00000000      -0.00182353       0.00000000 </v>
   <v>       0.00000000      -0.13224464       0.00000000 </v>
   <v>       0.00000000      -0.00120355       0.00000000 </v>
   <v>       0.00000000      -0.00184727       0.00000000 </v>
   <v>       0.00000000      -0.00131650       0.00000000 </v>
   <v>       0.00000000      -0.00242529       0.00000000 </v>
   <v>       0.00000000      -0.00151066       0.00000000 </v>
   <v>       0.00000000      -0.00137090       0.00000000 </v>
   <v>      -0.00209606      -0.00152980       0.00053097 </v>
   <v>       0.00209606      -0.00152980      -0.00053097 </v>
   <v>       0.09335868      -0.06186281       0.06003733 </v>
   <v>      -0.09335868      -0.06186281      -0.06003733 </v>
   <v>       0.00667707      -0.00142605      -0.00007203 </v>
   <v>      -0.00667707      -0.00142605       0.00007203 </v>
   <v>      -0.00209248      -0.00194944       0.00024981 </v>
   <v>       0.00209248      -0.00194944      -0.00024981 </v>
   <v>      -0.00115584       0.00214708       0.00001507 </v>
   <v>      -0.09244445       0.06165567       0.06029657 </v>
   <v>       0.00547574       0.00131832       0.00003672 </v>
   <v>       0.00089548       0.00163664       0.00050053 </v>
   <v>       0.09244445       0.06165567      -0.06029657 </v>
   <v>       0.00115584       0.00214708      -0.00001507 </v>
   <v>      -0.00089548       0.00163664      -0.00050053 </v>
   <v>      -0.00547574       0.00131832      -0.00003672 </v>
  </varray>
  <varray name="stress" >
   <v>      -0.01785522       0.00000000      -0.00015492 </v>
   <v>       0.00000000       0.02142882       0.00000000 </v>
   <v>      -0.00015493       0.00000000       0.02148902 </v>
  </varray>
  <energy>
   <i name="e_fr_energy">   -346.90673726 </i>
   <i name="e_wo_entrp">   -346.90673726 </i>
   <i name="e_0_energy">      0.00000000 </i>
  </energy>
  <time name="totalsc">   70.33   70.74</time>
  <eigenvalues>
   <array>
    <dimension dim="1">band</dimension>
    <dimension dim="2">kpoint</dimension>
    <dimension dim="3">spin</dimension>
    <field>eigene</field>
    <field>occ</field>
    <set>
     <set comment="spin 1">
      <set comment="kpoint 1">
       <r>   -5.9932    1.0000 </r>
       <r>   -5.4688    1.0000 </r>
       <r>   -5.4647    1.0000 </r>
       <r>   -5.4609    1.0000 </r>
       <r>   -4.9694    1.0000 </r>
       <r>   -4.9654    1.0000 </r>
       <r>   -4.9617    1.0000 </r>
       <r>   -4.5323    1.0000 </r>
       <r>   -4.4367    1.0000 </r>
       <r>   -4.4324    1.0000 </r>
       <r>   -4.4284    1.0000 </r>
       <r>   -4.0256    1.0000 </r>
       <r>   -4.0192    1.0000 </r>
       <r>   -4.0165    1.0000 </r>
       <r>   -4.0147    1.0000 </r>
       <r>   -4.0138    1.0000 </r>
       <r>   -4.0088    1.0000 </r>
       <r>   -3.8292    1.0000 </r>
       <r>   -3.8244    1.0000 </r>
       <r>   -3.8193    1.0000 </r>
       <r>   -3.3330    1.0000 </r>
       <r>   -3.3283    1.0000 </r>
       <r>   -3.3238    1.0000 </r>
       <r>   -2.9642    1.0000 </r>
       <r>   -2.9590    1.0000 </r>
       <r>   -2.9544    1.0000 </r>
       <r>   -2.7993    1.0000 </r>
       <r>   -2.7934    1.0000 </r>
       <r>   -2.7912    1.0000 </r>
       <r>   -2.7893    1.0000 </r>
       <r>   -2.7881    1.0000 </r>
       <r>   -2.7835    1.0000 </r>
       <r>   -1.2565    1.0000 </r>
       <r>   -1.2524    1.0000 </r>
       <r>   -1.2488    1.0000 </r>
       <r>   -1.2472    1.0000 </r>
       <r>   -1.2458    1.0000 </r>
       <r>   -1.2426    1.0000 </r>
       <r>   -1.1553    1.0000 </r>
       <r>   -1.1512    1.0000 </r>
       <r>   -1.1467    1.0000 </r>
       <r>   -1.0360    1.0000 </r>
       <r>   -1.0328    1.0000 </r>
       <r>   -1.0292    1.0000 </r>
       <r>   -0.9534    1.0000 </r>
       <r>   -0.9468    1.0000 </r>
       <r>   -0.9398    1.0000 </r>
       <r>   -0.2446    1.0000 </r>
       <r>   -0.1675    1.0000 </r>
       <r>   -0.1643    1.0000 </r>
       <r>   -0.1610    1.0000 </r>
       <r>   -0.1583    1.0000 </r>
       <r>   -0.1565    1.0000 </r>
       <r>   -0.1532    1.0000 </r>
       <r>    0.7091    1.0000 </r>
       <r>    0.7143    1.0000 </r>
       <r>    0.7194    1.0000 </r>
       <r>    1.0449    1.0000 </r>
       <r>    1.0470    1.0000 </r>
       <r>    1.0492    1.0000 </r>
       <r>    1.6532    1.0000 </r>
       <r>    1.6536    1.0000 </r>
       <r>    1.6566    1.0000 </r>
       <r>    1.6579    1.0000 </r>
       <r>    1.6591    1.0000 </r>
       <r>    1.6608    1.0000 </r>
       <r>    1.7136    1.0000 </r>
       <r>    1.7161    1.0000 </r>
       <r>    1.7190    1.0000 </r>
       <r>    2.2655    1.0000 </r>
       <r>    2.2677    1.0000 </r>
       <r>    2.2699    1.0000 </r>
       <r>    2.3647    1.0000 </r>
       <r>    2.3670    1.0000 </r>
       <r>    2.3707    1.0000 </r>
       <r>    2.3719    1.0000 </r>
       <r>    2.3742    1.0000 </r>
       <r>    2.3757    1.0000 </r>
       <r>    2.4221    1.0000 </r>
       <r>    2.4255    1.0000 </r>
       <r>    2.4284    1.0000 </r>
       <r>    2.7298    1.0000 </r>
       <r>    2.7326    1.0000 </r>
       <r>    2.7337    1.0000 </r>
       <r>    2.7361    1.0000 </r>
       <r>    2.7382    1.0000 </r>
       <r>    2.7391    1.0000 </r>
       <r>    2.9970    1.0000 </r>
       <r>    2.9991    1.0000 </r>
       <r>    3.0011    1.0000 </r>
       <r>    3.0114    1.0000 </r>
       <r>    3.0143    1.0000 </r>
       <r>    3.0155    1.0000 </r>
       <r>    3.3580    1.0000 </r>
       <r>    3.3619    1.0000 </r>
       <r>    3.3653    1.0000 </r>
       <r>    3.3798    1.0000 </r>
       <r>    3.3846    1.0000 </r>
       <r>    3.3894    1.0000 </r>
       <r>    3.4639    1.0000 </r>
       <r>    3.4667    1.0000 </r>
       <r>    3.4692    1.0000 </r>
       <r>    3.7327    1.0000 </r>
       <r>    3.7384    1.0000 </r>
       <r>    3.7413    1.0000 </r>
       <r>    3.7418    1.0000 </r>
       <r>    3.7441    1.0000 </r>
       <r>    3.7490    1.0000 </r>
       <r>    3.7777    1.0000 </r>
       <r>    3.7810    1.0000 </r>
       <r>    3.7838    1.0000 </r>
       <r>    4.0405    1.0000 </r>
       <r>    4.0955    1.0000 </r>
       <r>    4.0980    1.0000 </r>
       <r>    4.1003    1.0000 </r>
       <r>    4.3380    1.0000 </r>
       <r>    4.3410    1.0000 </r>
       <r>    4.3441    1.0000 </r>
       <r>    4.4005    1.0000 </r>
       <r>    4.4056    1.0000 </r>
       <r>    4.4115    1.0000 </r>
       <r>    4.5629    1.0000 </r>
       <r>    4.5630    1.0000 </r>
       <r>    4.8660    1.0000 </r>
       <r>    4.8701    1.0000 </r>
       <r>    4.8742    1.0000 </r>
       <r>    5.3496    1.0000 </r>
       <r>    5.3497    1.0000 </r>
       <r>    6.5596    0.0000 </r>
       <r>    6.5634    0.0000 </r>
       <r>    6.5671    0.0000 </r>
       <r>    6.9999    0.0000 </r>
       <r>    7.0045    0.0000 </r>
       <r>    7.0090    0.0000 </r>
       <r>    7.2337    0.0000 </r>
       <r>    7.4870    0.0000 </r>
       <r>    7.4908    0.0000 </r>
       <r>    7.4943    0.0000 </r>
       <r>    7.6151    0.0000 </r>
       <r>    7.6195    0.0000 </r>
       <r>    7.6240    0.0000 </r>
       <r>    7.7760    0.0000 </r>
       <r>    7.7798    0.0000 </r>
       <r>    7.7830    0.0000 </r>
       <r>    7.7984    0.0000 </r>
       <r>    7.8014    0.0000 </r>
       <r>    7.8045    0.0000 </r>
       <r>    8.0243    0.0000 </r>
       <r>    8.0267    0.0000 </r>
       <r>    8.0297    0.0000 </r>
       <r>    8.0326    0.0000 </r>
       <r>    8.0341    0.0000 </r>
       <r>    8.0355    0.0000 </r>
       <r>    8.0816    0.0000 </r>
       <r>    8.2921    0.0000 </r>
       <r>    8.2950    0.0000 </r>
       <r>    8.2979    0.0000 </r>
       <r>    8.4934    0.0000 </r>
       <r>    8.5000    0.0000 </r>
       <r>    8.5024    0.0000 </r>
       <r>    8.5064    0.0000 </r>
       <r>    8.5084    0.0000 </r>
       <r>    8.5198    0.0000 </r>
       <r>    8.5476    0.0000 </r>
      </set>
      <set comment="kpoint 2">
       <r>   -5.9932    1.0000 </r>
       <r>   -5.4673    1.0000 </r>
       <r>   -5.4648    1.0000 </r>
       <r>   -5.4623    1.0000 </r>
       <r>   -4.9681    1.0000 </r>
       <r>   -4.9656    1.0000 </r>
       <r>   -4.9630    1.0000 </r>
       <r>   -4.5323    1.0000 </r>
       <r>   -4.4348    1.0000 </r>
       <r>   -4.4324    1.0000 </r>
       <r>   -4.4300    1.0000 </r>
       <r>   -4.0253    1.0000 </r>
       <r>   -4.0187    1.0000 </r>
       <r>   -4.0169    1.0000 </r>
       <r>   -4.0149    1.0000 </r>
       <r>   -4.0143    1.0000 </r>
       <r>   -4.0087    1.0000 </r>
       <r>   -3.8292    1.0000 </r>
       <r>   -3.8244    1.0000 </r>
       <r>   -3.8193    1.0000 </r>
       <r>   -3.3310    1.0000 </r>
       <r>   -3.3283    1.0000 </r>
       <r>   -3.3257    1.0000 </r>
       <r>   -2.9642    1.0000 </r>
       <r>   -2.9590    1.0000 </r>
       <r>   -2.9544    1.0000 </r>
       <r>   -2.7992    1.0000 </r>
       <r>   -2.7931    1.0000 </r>
       <r>   -2.7916    1.0000 </r>
       <r>   -2.7892    1.0000 </r>
       <r>   -2.7882    1.0000 </r>
       <r>   -2.7837    1.0000 </r>
       <r>   -1.2563    1.0000 </r>
       <r>   -1.2521    1.0000 </r>
       <r>   -1.2492    1.0000 </r>
       <r>   -1.2472    1.0000 </r>
       <r>   -1.2461    1.0000 </r>
       <r>   -1.2425    1.0000 </r>
       <r>   -1.1553    1.0000 </r>
       <r>   -1.1512    1.0000 </r>
       <r>   -1.1468    1.0000 </r>
       <r>   -1.0360    1.0000 </r>
       <r>   -1.0326    1.0000 </r>
       <r>   -1.0292    1.0000 </r>
       <r>   -0.9517    1.0000 </r>
       <r>   -0.9468    1.0000 </r>
       <r>   -0.9417    1.0000 </r>
       <r>   -0.2446    1.0000 </r>
       <r>   -0.1668    1.0000 </r>
       <r>   -0.1640    1.0000 </r>
       <r>   -0.1607    1.0000 </r>
       <r>   -0.1594    1.0000 </r>
       <r>   -0.1566    1.0000 </r>
       <r>   -0.1530    1.0000 </r>
       <r>    0.7095    1.0000 </r>
       <r>    0.7143    1.0000 </r>
       <r>    0.7189    1.0000 </r>
       <r>    1.0457    1.0000 </r>
       <r>    1.0471    1.0000 </r>
       <r>    1.0485    1.0000 </r>
       <r>    1.6531    1.0000 </r>
       <r>    1.6551    1.0000 </r>
       <r>    1.6561    1.0000 </r>
       <r>    1.6575    1.0000 </r>
       <r>    1.6598    1.0000 </r>
       <r>    1.6601    1.0000 </r>
       <r>    1.7144    1.0000 </r>
       <r>    1.7159    1.0000 </r>
       <r>    1.7177    1.0000 </r>
       <r>    2.2655    1.0000 </r>
       <r>    2.2677    1.0000 </r>
       <r>    2.2699    1.0000 </r>
       <r>    2.3658    1.0000 </r>
       <r>    2.3675    1.0000 </r>
       <r>    2.3706    1.0000 </r>
       <r>    2.3720    1.0000 </r>
       <r>    2.3738    1.0000 </r>
       <r>    2.3757    1.0000 </r>
       <r>    2.4228    1.0000 </r>
       <r>    2.4248    1.0000 </r>
       <r>    2.4271    1.0000 </r>
       <r>    2.7307    1.0000 </r>
       <r>    2.7321    1.0000 </r>
       <r>    2.7340    1.0000 </r>
       <r>    2.7355    1.0000 </r>
       <r>    2.7374    1.0000 </r>
       <r>    2.7399    1.0000 </r>
       <r>    2.9972    1.0000 </r>
       <r>    2.9991    1.0000 </r>
       <r>    3.0007    1.0000 </r>
       <r>    3.0123    1.0000 </r>
       <r>    3.0139    1.0000 </r>
       <r>    3.0151    1.0000 </r>
       <r>    3.3585    1.0000 </r>
       <r>    3.3620    1.0000 </r>
       <r>    3.3646    1.0000 </r>
       <r>    3.3799    1.0000 </r>
       <r>    3.3847    1.0000 </r>
       <r>    3.3893    1.0000 </r>
       <r>    3.4647    1.0000 </r>
       <r>    3.4666    1.0000 </r>
       <r>    3.4687    1.0000 </r>
       <r>    3.7328    1.0000 </r>
       <r>    3.7386    1.0000 </r>
       <r>    3.7411    1.0000 </r>
       <r>    3.7419    1.0000 </r>
       <r>    3.7436    1.0000 </r>
       <r>    3.7494    1.0000 </r>
       <r>    3.7785    1.0000 </r>
       <r>    3.7805    1.0000 </r>
       <r>    3.7833    1.0000 </r>
       <r>    4.0405    1.0000 </r>
       <r>    4.0957    1.0000 </r>
       <r>    4.0979    1.0000 </r>
       <r>    4.1004    1.0000 </r>
       <r>    4.3390    1.0000 </r>
       <r>    4.3410    1.0000 </r>
       <r>    4.3433    1.0000 </r>
       <r>    4.4016    1.0000 </r>
       <r>    4.4056    1.0000 </r>
       <r>    4.4103    1.0000 </r>
       <r>    4.5629    1.0000 </r>
       <r>    4.5630    1.0000 </r>
       <r>    4.8673    1.0000 </r>
       <r>    4.8699    1.0000 </r>
       <r>    4.8730    1.0000 </r>
       <r>    5.3496    1.0000 </r>
       <r>    5.3498    1.0000 </r>
       <r>    6.5596    0.0000 </r>
       <r>    6.5634    0.0000 </r>
       <r>    6.5671    0.0000 </r>
       <r>    7.0007    0.0000 </r>
       <r>    7.0045    0.0000 </r>
       <r>    7.0082    0.0000 </r>
       <r>    7.2337    0.0000 </r>
       <r>    7.4876    0.0000 </r>
       <r>    7.4907    0.0000 </r>
       <r>    7.4936    0.0000 </r>
       <r>    7.6151    0.0000 </r>
       <r>    7.6194    0.0000 </r>
       <r>    7.6240    0.0000 </r>
       <r>    7.7774    0.0000 </r>
       <r>    7.7800    0.0000 </r>
       <r>    7.7824    0.0000 </r>
       <r>    7.7981    0.0000 </r>
       <r>    7.8013    0.0000 </r>
       <r>    7.8042    0.0000 </r>
       <r>    8.0237    0.0000 </r>
       <r>    8.0263    0.0000 </r>
       <r>    8.0306    0.0000 </r>
       <r>    8.0316    0.0000 </r>
       <r>    8.0339    0.0000 </r>
       <r>    8.0365    0.0000 </r>
       <r>    8.0816    0.0000 </r>
       <r>    8.2928    0.0000 </r>
       <r>    8.2950    0.0000 </r>
       <r>    8.2970    0.0000 </r>
       <r>    8.4941    0.0000 </r>
       <r>    8.4969    0.0000 </r>
       <r>    8.5027    0.0000 </r>
       <r>    8.5041    0.0000 </r>
       <r>    8.5093    0.0000 </r>
       <r>    8.5224    0.0000 </r>
       <r>    8.5401    0.0000 </r>
      </set>
     </set>
    </set>
   </array>
  </eigenvalues>
  <separator name="orbital magnetization" >
   <v name="MAGDIPOLOUT">      0.00000000      0.00000000      0.00000000</v>
  </separator>
  <dos>
   <i name="efermi">      5.59918361 </i>
   <total>
    <array>
     <dimension dim="1">gridpoints</dimension>
     <dimension dim="2">spin</dimension>
     <field>energy</field>
     <field>total</field>
     <field>integrated</field>
     <set>
      <set comment="spin 1">
       <r>    -6.7202     0.0000     0.0000 </r>
       <r>    -6.6669     0.0000     0.0000 </r>
       <r>    -6.6136     0.0000     0.0000 </r>
       <r>    -6.5603     0.0000     0.0000 </r>
       <r>    -6.5070     0.0000     0.0000 </r>
       <r>    -6.4536     0.0000     0.0000 </r>
       <r>    -6.4003     0.0000     0.0000 </r>
       <r>    -6.3470     0.0000     0.0000 </r>
       <r>    -6.2937     0.0000     0.0000 </r>
       <r>    -6.2404     0.0000     0.0000 </r>
       <r>    -6.1871     0.0000     0.0000 </r>
       <r>    -6.1337     0.0013     0.0001 </r>
       <r>    -6.0804     0.2537     0.0136 </r>
       <r>    -6.0271     6.0694     0.3372 </r>
       <r>    -5.9738    20.2436     1.4165 </r>
       <r>    -5.9205    10.1983     1.9602 </r>
       <r>    -5.8672     0.7388     1.9996 </r>
       <r>    -5.8138     0.0068     2.0000 </r>
       <r>    -5.7605     0.0000     2.0000 </r>
       <r>    -5.7072     0.0000     2.0000 </r>
       <r>    -5.6539     0.0000     2.0000 </r>
       <r>    -5.6006     0.0072     2.0004 </r>
       <r>    -5.5473     1.1192     2.0601 </r>
       <r>    -5.4939    21.9911     3.2325 </r>
       <r>    -5.4406    61.5228     6.5127 </r>
       <r>    -5.3873    26.2690     7.9133 </r>
       <r>    -5.3340     1.6137     7.9993 </r>
       <r>    -5.2807     0.0127     8.0000 </r>
       <r>    -5.2274     0.0000     8.0000 </r>
       <r>    -5.1740     0.0000     8.0000 </r>
       <r>    -5.1207     0.0007     8.0000 </r>
       <r>    -5.0674     0.2280     8.0122 </r>
       <r>    -5.0141     9.3866     8.5126 </r>
       <r>    -4.9608    52.6696    11.3208 </r>
       <r>    -4.9075    44.5469    13.6959 </r>
       <r>    -4.8542     5.6097    13.9950 </r>
       <r>    -4.8008     0.0942    14.0000 </r>
       <r>    -4.7475     0.0002    14.0000 </r>
       <r>    -4.6942     0.0001    14.0000 </r>
       <r>    -4.6409     0.0399    14.0021 </r>
       <r>    -4.5876     2.1741    14.1180 </r>
       <r>    -4.5343    15.9471    14.9683 </r>
       <r>    -4.4809    26.2577    16.3683 </r>
       <r>    -4.4276    55.3915    19.3215 </r>
       <r>    -4.3743    44.5475    21.6966 </r>
       <r>    -4.3210     5.5958    21.9950 </r>
       <r>    -4.2677     0.0939    22.0000 </r>
       <r>    -4.2144     0.0002    22.0000 </r>
       <r>    -4.1610     0.0059    22.0003 </r>
       <r>    -4.1077     1.1916    22.0638 </r>
       <r>    -4.0544    31.2121    23.7280 </r>
       <r>    -4.0011   117.5646    29.9961 </r>
       <r>    -3.9478    68.9955    33.6747 </r>
       <r>    -3.8945     8.7667    34.1421 </r>
       <r>    -3.8411    33.1163    35.9077 </r>
       <r>    -3.7878    59.5703    39.0838 </r>
       <r>    -3.7345    16.5305    39.9651 </r>
       <r>    -3.6812     0.6508    39.9998 </r>
       <r>    -3.6279     0.0032    40.0000 </r>
       <r>    -3.5746     0.0000    40.0000 </r>
       <r>    -3.5212     0.0000    40.0000 </r>
       <r>    -3.4679     0.0047    40.0003 </r>
       <r>    -3.4146     0.8422    40.0452 </r>
       <r>    -3.3613    19.0169    41.0591 </r>
       <r>    -3.3080    60.8131    44.3014 </r>
       <r>    -3.2547    29.7272    45.8863 </r>
       <r>    -3.2013     2.1123    45.9990 </r>
       <r>    -3.1480     0.0194    46.0000 </r>
       <r>    -3.0947     0.0079    46.0004 </r>
       <r>    -3.0414     1.1662    46.0626 </r>
       <r>    -2.9881    22.2810    47.2505 </r>
       <r>    -2.9348    61.3829    50.5232 </r>
       <r>    -2.8814    27.3220    51.9800 </r>
       <r>    -2.8281    33.6270    53.7728 </r>
       <r>    -2.7748   118.2208    60.0759 </r>
       <r>    -2.7215    67.7459    63.6879 </r>
       <r>    -2.6682     5.7881    63.9965 </r>
       <r>    -2.6149     0.0657    64.0000 </r>
       <r>    -2.5615     0.0001    64.0000 </r>
       <r>    -2.5082     0.0000    64.0000 </r>
       <r>    -2.4549     0.0000    64.0000 </r>
       <r>    -2.4016     0.0000    64.0000 </r>
       <r>    -2.3483     0.0000    64.0000 </r>
       <r>    -2.2950     0.0000    64.0000 </r>
       <r>    -2.2417     0.0000    64.0000 </r>
       <r>    -2.1883     0.0000    64.0000 </r>
       <r>    -2.1350     0.0000    64.0000 </r>
       <r>    -2.0817     0.0000    64.0000 </r>
       <r>    -2.0284     0.0000    64.0000 </r>
       <r>    -1.9751     0.0000    64.0000 </r>
       <r>    -1.9218     0.0000    64.0000 </r>
       <r>    -1.8684     0.0000    64.0000 </r>
       <r>    -1.8151     0.0000    64.0000 </r>
       <r>    -1.7618     0.0000    64.0000 </r>
       <r>    -1.7085     0.0000    64.0000 </r>
       <r>    -1.6552     0.0000    64.0000 </r>
       <r>    -1.6019     0.0000    64.0000 </r>
       <r>    -1.5485     0.0000    64.0000 </r>
       <r>    -1.4952     0.0000    64.0000 </r>
       <r>    -1.4419     0.0000    64.0000 </r>
       <r>    -1.3886     0.0100    64.0005 </r>
       <r>    -1.3353     1.7193    64.0922 </r>
       <r>    -1.2820    38.0568    66.1213 </r>
       <r>    -1.2286   122.7735    72.6671 </r>
       <r>    -1.1753    85.9728    77.2508 </r>
       <r>    -1.1220    66.4369    80.7930 </r>
       <r>    -1.0687    38.9386    82.8691 </r>
       <r>    -1.0154    64.0445    86.2837 </r>
       <r>    -0.9621    67.0891    89.8606 </r>
       <r>    -0.9087    61.4241    93.1355 </r>
       <r>    -0.8554    15.6200    93.9683 </r>
       <r>    -0.8021     0.5908    93.9998 </r>
       <r>    -0.7488     0.0029    94.0000 </r>
       <r>    -0.6955     0.0000    94.0000 </r>
       <r>    -0.6422     0.0000    94.0000 </r>
       <r>    -0.5888     0.0000    94.0000 </r>
       <r>    -0.5355     0.0000    94.0000 </r>
       <r>    -0.4822     0.0000    94.0000 </r>
       <r>    -0.4289     0.0000    94.0000 </r>
       <r>    -0.3756     0.0040    94.0002 </r>
       <r>    -0.3223     0.5238    94.0281 </r>
       <r>    -0.2689     8.9482    94.5052 </r>
       <r>    -0.2156    33.7602    96.3052 </r>
       <r>    -0.1623   100.9024   101.6849 </r>
       <r>    -0.1090   101.3647   107.0893 </r>
       <r>    -0.0557    16.6975   107.9796 </r>
       <r>    -0.0024     0.3819   107.9999 </r>
       <r>     0.0510     0.0011   108.0000 </r>
       <r>     0.1043     0.0000   108.0000 </r>
       <r>     0.1576     0.0000   108.0000 </r>
       <r>     0.2109     0.0000   108.0000 </r>
       <r>     0.2642     0.0000   108.0000 </r>
       <r>     0.3175     0.0000   108.0000 </r>
       <r>     0.3708     0.0000   108.0000 </r>
       <r>     0.4242     0.0000   108.0000 </r>
       <r>     0.4775     0.0000   108.0000 </r>
       <r>     0.5308     0.0000   108.0000 </r>
       <r>     0.5841     0.0143   108.0008 </r>
       <r>     0.6374     1.7215   108.0925 </r>
       <r>     0.6907    26.8914   109.5263 </r>
       <r>     0.7441    61.2691   112.7929 </r>
       <r>     0.7974    21.5421   113.9415 </r>
       <r>     0.8507     1.0904   113.9996 </r>
       <r>     0.9040     0.0100   114.0002 </r>
       <r>     0.9573     0.6274   114.0336 </r>
       <r>     1.0106    16.4295   114.9096 </r>
       <r>     1.0640    59.8403   118.1000 </r>
       <r>     1.1173    32.9750   119.8581 </r>
       <r>     1.1706     2.6335   119.9986 </r>
       <r>     1.2239     0.0271   120.0000 </r>
       <r>     1.2772     0.0000   120.0000 </r>
       <r>     1.3305     0.0000   120.0000 </r>
       <r>     1.3839     0.0000   120.0000 </r>
       <r>     1.4372     0.0000   120.0000 </r>
       <r>     1.4905     0.0003   120.0000 </r>
       <r>     1.5438     0.1599   120.0085 </r>
       <r>     1.5971    10.2098   120.5529 </r>
       <r>     1.6504    89.4550   125.3223 </r>
       <r>     1.7038   145.1582   133.0616 </r>
       <r>     1.7571    78.1624   137.2289 </r>
       <r>     1.8104    14.0236   137.9766 </r>
       <r>     1.8637     0.4367   137.9999 </r>
       <r>     1.9170     0.0017   138.0000 </r>
       <r>     1.9703     0.0000   138.0000 </r>
       <r>     2.0237     0.0000   138.0000 </r>
       <r>     2.0770     0.0000   138.0000 </r>
       <r>     2.1303     0.0058   138.0003 </r>
       <r>     2.1836     0.9804   138.0526 </r>
       <r>     2.2369    20.6741   139.1549 </r>
       <r>     2.2902    64.0132   142.5678 </r>
       <r>     2.3436    76.1399   146.6273 </r>
       <r>     2.3969   147.5742   154.4954 </r>
       <r>     2.4502   110.9308   160.4098 </r>
       <r>     2.5035    28.2897   161.9181 </r>
       <r>     2.5568     1.5240   161.9994 </r>
       <r>     2.6101     0.0607   162.0026 </r>
       <r>     2.6635     4.9118   162.2645 </r>
       <r>     2.7168    63.5947   165.6552 </r>
       <r>     2.7701   120.3035   172.0693 </r>
       <r>     2.8234    34.7863   173.9240 </r>
       <r>     2.8767     1.4556   174.0016 </r>
       <r>     2.9300     3.8635   174.2076 </r>
       <r>     2.9834    55.0758   177.1440 </r>
       <r>     3.0367   120.8289   183.5862 </r>
       <r>     3.0900    42.9475   185.8760 </r>
       <r>     3.1433     2.3098   185.9991 </r>
       <r>     3.1966     0.0168   186.0000 </r>
       <r>     3.2499     0.0996   186.0053 </r>
       <r>     3.3032     6.7322   186.3643 </r>
       <r>     3.3566    67.2819   189.9515 </r>
       <r>     3.4099   120.4353   196.3727 </r>
       <r>     3.4632    80.6804   200.6742 </r>
       <r>     3.5165    53.4245   203.5226 </r>
       <r>     3.5698     8.7531   203.9893 </r>
       <r>     3.6231     0.3065   204.0057 </r>
       <r>     3.6765     7.9251   204.4282 </r>
       <r>     3.7298    84.6274   208.9402 </r>
       <r>     3.7831   164.4493   217.7081 </r>
       <r>     3.8364    73.0761   221.6042 </r>
       <r>     3.8897     7.3014   221.9935 </r>
       <r>     3.9430     0.2317   222.0059 </r>
       <r>     3.9964     4.0900   222.2239 </r>
       <r>     4.0497    28.1039   223.7223 </r>
       <r>     4.1030    66.3890   227.2619 </r>
       <r>     4.1563    45.7440   229.7008 </r>
       <r>     4.2096     5.5320   229.9958 </r>
       <r>     4.2629     1.6239   230.0824 </r>
       <r>     4.3163    26.3281   231.4861 </r>
       <r>     4.3696    78.2958   235.6605 </r>
       <r>     4.4229    82.1503   240.0405 </r>
       <r>     4.4762    34.5701   241.8836 </r>
       <r>     4.5295    15.0796   242.6876 </r>
       <r>     4.5828    40.6124   244.8529 </r>
       <r>     4.6362    20.0752   245.9233 </r>
       <r>     4.6895     1.4265   245.9993 </r>
       <r>     4.7428     0.0316   246.0010 </r>
       <r>     4.7961     2.0664   246.1112 </r>
       <r>     4.8494    29.4519   247.6814 </r>
       <r>     4.9027    60.9040   250.9286 </r>
       <r>     4.9561    19.2308   251.9539 </r>
       <r>     5.0094     0.8593   251.9997 </r>
       <r>     5.0627     0.0048   252.0000 </r>
       <r>     5.1160     0.0000   252.0000 </r>
       <r>     5.1693     0.0000   252.0000 </r>
       <r>     5.2226     0.0122   252.0007 </r>
       <r>     5.2760     1.3739   252.0739 </r>
       <r>     5.3293    19.7355   253.1261 </r>
       <r>     5.3826    40.6786   255.2950 </r>
       <r>     5.4359    12.6693   255.9704 </r>
       <r>     5.4892     0.5514   255.9998 </r>
       <r>     5.5425     0.0030   256.0000 </r>
       <r>     5.5959     0.0000   256.0000 </r>
       <r>     5.6492     0.0000   256.0000 </r>
       <r>     5.7025     0.0000   256.0000 </r>
       <r>     5.7558     0.0000   256.0000 </r>
       <r>     5.8091     0.0000   256.0000 </r>
       <r>     5.8624     0.0000   256.0000 </r>
       <r>     5.9157     0.0000   256.0000 </r>
       <r>     5.9691     0.0000   256.0000 </r>
       <r>     6.0224     0.0000   256.0000 </r>
       <r>     6.0757     0.0000   256.0000 </r>
       <r>     6.1290     0.0000   256.0000 </r>
       <r>     6.1823     0.0000   256.0000 </r>
       <r>     6.2356     0.0000   256.0000 </r>
       <r>     6.2890     0.0000   256.0000 </r>
       <r>     6.3423     0.0000   256.0000 </r>
       <r>     6.3956     0.0001   256.0000 </r>
       <r>     6.4489     0.0707   256.0038 </r>
       <r>     6.5022     4.7083   256.2548 </r>
       <r>     6.5555    41.6717   258.4766 </r>
       <r>     6.6089    54.8375   261.4003 </r>
       <r>     6.6622    10.9456   261.9839 </r>
       <r>     6.7155     0.3009   261.9999 </r>
       <r>     6.7688     0.0010   262.0000 </r>
       <r>     6.8221     0.0000   262.0000 </r>
       <r>     6.8754     0.0158   262.0008 </r>
       <r>     6.9288     1.8482   262.0994 </r>
       <r>     6.9821    27.9035   263.5871 </r>
       <r>     7.0354    61.1916   266.8496 </r>
       <r>     7.0887    20.5837   267.9471 </r>
       <r>     7.1420     1.1654   268.0092 </r>
       <r>     7.1953     5.0395   268.2779 </r>
       <r>     7.2487    19.6893   269.3276 </r>
       <r>     7.3020    11.6075   269.9465 </r>
       <r>     7.3553     0.9999   269.9998 </r>
       <r>     7.4086     1.1655   270.0620 </r>
       <r>     7.4619    22.3331   271.2527 </r>
       <r>     7.5152    61.7485   274.5449 </r>
       <r>     7.5686    34.2404   276.3705 </r>
       <r>     7.6219    52.2681   279.1572 </r>
       <r>     7.6752    46.9170   281.6586 </r>
       <r>     7.7285    16.8668   282.5579 </r>
       <r>     7.7818    81.1809   286.8862 </r>
       <r>     7.8351   107.6473   292.6255 </r>
       <r>     7.8885    24.8799   293.9521 </r>
       <r>     7.9418     2.3305   294.0763 </r>
       <r>     7.9951    34.9049   295.9373 </r>
       <r>     8.0484   126.1311   302.6622 </r>
       <r>     8.1017    84.3314   307.1584 </r>
       <r>     8.1550    15.0268   307.9596 </r>
       <r>     8.2084     1.5645   308.0430 </r>
       <r>     8.2617    18.7129   309.0407 </r>
       <r>     8.3150    60.8203   312.2834 </r>
       <r>     8.3683    30.0523   313.8857 </r>
       <r>     8.4216     4.5726   314.1295 </r>
       <r>     8.4749    44.6381   316.5094 </r>
       <r>     8.5283   131.6212   323.5270 </r>
       <r>     8.5816    74.4428   327.4960 </r>
       <r>     8.6349     9.2143   327.9873 </r>
       <r>     8.6882     0.2378   327.9999 </r>
       <r>     8.7415     0.0010   328.0000 </r>
       <r>     8.7948     0.0000   328.0000 </r>
       <r>     8.8481     0.0000   328.0000 </r>
       <r>     8.9015     0.0000   328.0000 </r>
       <r>     8.9548     0.0000   328.0000 </r>
       <r>     9.0081     0.0000   328.0000 </r>
       <r>     9.0614     0.0000   328.0000 </r>
       <r>     9.1147     0.0000   328.0000 </r>
       <r>     9.1680     0.0000   328.0000 </r>
       <r>     9.2214     0.0000   328.0000 </r>
       <r>     9.2747     0.0000   328.0000 </r>
      </set>
     </set>
    </array>
   </total>
  </dos>
 </calculation>
 <structure name="finalpos" >
  <crystal>
   <varray name="basis" >
    <v>      10.93252578       0.00000000       0.00000000 </v>
    <v>       0.00000000      10.93252578       0.00000000 </v>
    <v>       0.00000000       0.00000000      10.93252578 </v>
   </varray>
   <i name="volume">   1306.65679237 </i>
   <varray name="rec_basis" >
    <v>       0.09147017       0.00000000       0.00000000 </v>
    <v>       0.00000000       0.09147017       0.00000000 </v>
    <v>       0.00000000       0.00000000       0.09147017 </v>
   </varray>
  </crystal>
  <varray name="positions" >
   <v>       0.44024411       0.43750000       0.43750000 </v>
   <v>       0.93750000       0.43750000       0.43750000 </v>
   <v>       0.43750000       0.93750000       0.43750000 </v>
   <v>       0.93750000       0.93750000       0.43750000 </v>
   <v>       0.43750000       0.43750000       0.93750000 </v>
   <v>       0.93750000       0.43750000       0.93750000 </v>
   <v>       0.43750000       0.93750000       0.93750000 </v>
   <v>       0.93750000       0.93750000       0.93750000 </v>
   <v>       0.43750000       0.18750000       0.18750000 </v>
   <v>       0.93750000       0.18750000       0.18750000 </v>
   <v>       0.43750000       0.68750000       0.18750000 </v>
   <v>       0.93750000       0.68750000       0.18750000 </v>
   <v>       0.43750000       0.18750000       0.68750000 </v>
   <v>       0.93750000       0.18750000       0.68750000 </v>
   <v>       0.43750000       0.68750000       0.68750000 </v>
   <v>       0.93750000       0.68750000       0.68750000 </v>
   <v>       0.18750000       0.43750000       0.18750000 </v>
   <v>       0.68475589       0.43750000       0.18750000 </v>
   <v>       0.18750000       0.93750000       0.18750000 </v>
   <v>       0.68750000       0.93750000       0.18750000 </v>
   <v>       0.18750000       0.43750000       0.68750000 </v>
   <v>       0.68750000       0.43750000       0.68750000 </v>
   <v>       0.18750000       0.93750000       0.68750000 </v>
   <v>       0.68750000       0.93750000       0.68750000 </v>
   <v>       0.18750000       0.18750000       0.43750000 </v>
   <v>       0.68750000       0.18750000       0.43750000 </v>
   <v>       0.18750000       0.68750000       0.43750000 </v>
   <v>       0.68750000       0.68750000       0.43750000 </v>
   <v>       0.18750000       0.18750000       0.93750000 </v>
   <v>       0.68750000       0.18750000       0.93750000 </v>
   <v>       0.18750000       0.68750000       0.93750000 </v>
   <v>       0.68750000       0.68750000       0.93750000 </v>
   <v>       0.06250000       0.06250000       0.06250000 </v>
   <v>       0.56250000       0.06250000       0.06250000 </v>
   <v>       0.06250000       0.56250000       0.06250000 </v>
   <v>       0.56250000       0.56250000       0.06250000 </v>
   <v>       0.06250000       0.06250000       0.56250000 </v>
   <v>       0.56250000       0.06250000       0.56250000 </v>
   <v>       0.06250000       0.56250000       0.56250000 </v>
   <v>       0.56250000       0.56250000       0.56250000 </v>
   <v>       0.06250000       0.31250000       0.31250000 </v>
   <v>       0.56250000       0.31250000       0.31250000 </v>
   <v>       0.06250000       0.81250000       0.31250000 </v>
   <v>       0.56250000       0.81250000       0.31250000 </v>
   <v>       0.06250000       0.31250000       0.81250000 </v>
   <v>       0.56250000       0.31250000       0.81250000 </v>
   <v>       0.06250000       0.81250000       0.81250000 </v>
   <v>       0.56250000       0.81250000       0.81250000 </v>
   <v>       0.31250000       0.06250000       0.31250000 </v>
   <v>       0.81250000       0.06250000       0.31250000 </v>
   <v>       0.31250000       0.56250000       0.31250000 </v>
   <v>       0.81250000       0.56250000       0.31250000 </v>
   <v>       0.31250000       0.06250000       0.81250000 </v>
   <v>       0.81250000       0.06250000       0.81250000 </v>
   <v>       0.31250000       0.56250000       0.81250000 </v>
   <v>       0.81250000       0.56250000       0.81250000 </v>
   <v>       0.31250000       0.31250000       0.06250000 </v>
   <v>       0.81250000       0.31250000       0.06250000 </v>
   <v>       0.31250000       0.81250000       0.06250000 </v>
   <v>       0.81250000       0.81250000       0.06250000 </v>
   <v>       0.31250000       0.31250000       0.56250000 </v>
   <v>       0.81250000       0.31250000       0.56250000 </v>
   <v>       0.31250000       0.81250000       0.56250000 </v>
   <v>       0.81250000       0.81250000       0.56250000 </v>
  </varray>
 </structure>
</modeling>
