<?xml version="1.0" encoding="ISO-8859-1"?>
<modeling>
 <generator>
  <i name="program" type="string">vasp </i>
  <i name="version" type="string">5.4.1  </i>
  <i name="subversion" type="string">05Feb16 (build Mar 26 2016 11:58:25) complex                          parallel </i>
  <i name="platform" type="string">IFC91_ompi </i>
  <i name="date" type="string">2017 03 12 </i>
  <i name="time" type="string">12:17:26 </i>
 </generator>
 <incar>
  <i type="string" name="PREC">accurate</i>
  <i type="int" name="IALGO">    38</i>
  <i type="logical" name="ADDGRID"> T  </i>
  <i type="int" name="NELMIN">     5</i>
  <i type="int" name="IBRION">    -1</i>
  <i name="EDIFF">      0.00000001</i>
  <i name="ENCUT">    300.00000000</i>
  <i type="logical" name="LREAL"> F  </i>
  <i type="int" name="ISMEAR">     0</i>
  <i name="SIGMA">      0.05000000</i>
  <i type="logical" name="LWAVE"> F  </i>
  <i type="logical" name="LCHARG"> F  </i>
  <v type="int" name="KPOINT_BSE">    -1     0     0     0</v>
 </incar>
 <kpoints>
  <generation param="Monkhorst-Pack">
   <v type="int" name="divisions">       2        2        2 </v>
   <v name="usershift">      0.00000000       0.00000000       0.00000000 </v>
   <v name="genvec1">      0.50000000       0.00000000       0.00000000 </v>
   <v name="genvec2">      0.00000000       0.50000000       0.00000000 </v>
   <v name="genvec3">      0.00000000       0.00000000       0.50000000 </v>
   <v name="shift">      0.50000000       0.50000000       0.50000000 </v>
  </generation>
  <varray name="kpointlist" >
   <v>       0.25000000       0.25000000       0.25000000 </v>
   <v>      -0.25000000       0.25000000       0.25000000 </v>
   <v>       0.25000000      -0.25000000       0.25000000 </v>
   <v>      -0.25000000      -0.25000000       0.25000000 </v>
  </varray>
  <varray name="weights" >
   <v>       0.25000000 </v>
   <v>       0.25000000 </v>
   <v>       0.25000000 </v>
   <v>       0.25000000 </v>
  </varray>
 </kpoints>
 <parameters>
  <separator name="general" >
   <i type="string" name="SYSTEM">unknown system</i>
   <i type="logical" name="LCOMPAT"> F  </i>
  </separator>
  <separator name="electronic" >
   <i type="string" name="PREC">accura</i>
   <i name="ENMAX">    300.00000000</i>
   <i name="ENAUG">    322.06900000</i>
   <i name="EDIFF">      0.00000001</i>
   <i type="int" name="IALGO">    38</i>
   <i type="int" name="IWAVPR">    10</i>
   <i type="int" name="NBANDS">   164</i>
   <i name="NELECT">    256.00000000</i>
   <i type="int" name="TURBO">     0</i>
   <i type="int" name="IRESTART">     0</i>
   <i type="int" name="NREBOOT">     0</i>
   <i type="int" name="NMIN">     0</i>
   <i name="EREF">      0.00000000</i>
   <separator name="electronic smearing" >
    <i type="int" name="ISMEAR">     0</i>
    <i name="SIGMA">      0.05000000</i>
    <i name="KSPACING">      0.50000000</i>
    <i type="logical" name="KGAMMA"> T  </i>
   </separator>
   <separator name="electronic projectors" >
    <i type="logical" name="LREAL"> F  </i>
    <v name="ROPT">      0.00000000</v>
    <i type="int" name="LMAXPAW">  -100</i>
    <i type="int" name="LMAXMIX">     2</i>
    <i type="logical" name="NLSPLINE"> F  </i>
   </separator>
   <separator name="electronic startup" >
    <i type="int" name="ISTART">     0</i>
    <i type="int" name="ICHARG">     2</i>
    <i type="int" name="INIWAV">     1</i>
   </separator>
   <separator name="electronic spin" >
    <i type="int" name="ISPIN">     1</i>
    <i type="logical" name="LNONCOLLINEAR"> F  </i>
    <v name="MAGMOM">      1.00000000      1.00000000      1.00000000      1.00000000      1.00000000      1.00000000      1.00000000      1.00000000      1.00000000      1.00000000      1.00000000      1.00000000      1.00000000      1.00000000      1.00000000      1.00000000      1.00000000      1.00000000      1.00000000      1.00000000
      1.00000000      1.00000000      1.00000000      1.00000000      1.00000000      1.00000000      1.00000000      1.00000000      1.00000000      1.00000000      1.00000000      1.00000000      1.00000000      1.00000000      1.00000000      1.00000000      1.00000000      1.00000000      1.00000000      1.00000000
      1.00000000      1.00000000      1.00000000      1.00000000      1.00000000      1.00000000      1.00000000      1.00000000      1.00000000      1.00000000      1.00000000      1.00000000      1.00000000      1.00000000      1.00000000      1.00000000      1.00000000      1.00000000      1.00000000      1.00000000
      1.00000000      1.00000000      1.00000000      1.00000000</v>
    <i name="NUPDOWN">     -1.00000000</i>
    <i type="logical" name="LSORBIT"> F  </i>
    <v name="SAXIS">      0.00000000      0.00000000      1.00000000</v>
    <i type="logical" name="LSPIRAL"> F  </i>
    <v name="QSPIRAL">      0.00000000      0.00000000      0.00000000</v>
    <i type="logical" name="LZEROZ"> F  </i>
   </separator>
   <separator name="electronic exchange-correlation" >
    <i type="logical" name="LASPH"> F  </i>
    <i type="logical" name="LMETAGGA"> F  </i>
   </separator>
   <separator name="electronic convergence" >
    <i type="int" name="NELM">    60</i>
    <i type="int" name="NELMDL">    -5</i>
    <i type="int" name="NELMIN">     5</i>
    <i name="ENINI">    300.00000000</i>
    <separator name="electronic convergence detail" >
     <i type="logical" name="LDIAG"> T  </i>
     <i type="logical" name="LSUBROT"> F  </i>
     <i name="WEIMIN">      0.00000000</i>
     <i name="EBREAK">      0.00000000</i>
     <i name="DEPER">      0.30000000</i>
     <i type="int" name="NRMM">     4</i>
     <i name="TIME">      0.40000000</i>
    </separator>
   </separator>
   <separator name="electronic mixer" >
    <i name="AMIX">      0.40000000</i>
    <i name="BMIX">      1.00000000</i>
    <i name="AMIN">      0.10000000</i>
    <i name="AMIX_MAG">      1.60000000</i>
    <i name="BMIX_MAG">      1.00000000</i>
    <separator name="electronic mixer details" >
     <i type="int" name="IMIX">     4</i>
     <i type="logical" name="MIXFIRST"> F  </i>
     <i type="int" name="MAXMIX">   -45</i>
     <i name="WC">    100.00000000</i>
     <i type="int" name="INIMIX">     1</i>
     <i type="int" name="MIXPRE">     1</i>
     <i type="int" name="MREMOVE">     5</i>
    </separator>
   </separator>
   <separator name="electronic dipolcorrection" >
    <i type="logical" name="LDIPOL"> F  </i>
    <i type="logical" name="LMONO"> F  </i>
    <i type="int" name="IDIPOL">     0</i>
    <i name="EPSILON">      1.00000000</i>
    <v name="DIPOL">   -100.00000000   -100.00000000   -100.00000000</v>
    <i name="EFIELD">      0.00000000</i>
   </separator>
  </separator>
  <separator name="grids" >
   <i type="int" name="NGX">    64</i>
   <i type="int" name="NGY">    64</i>
   <i type="int" name="NGZ">    64</i>
   <i type="int" name="NGXF">   128</i>
   <i type="int" name="NGYF">   128</i>
   <i type="int" name="NGZF">   128</i>
   <i type="logical" name="ADDGRID"> T  </i>
  </separator>
  <separator name="ionic" >
   <i type="int" name="NSW">     0</i>
   <i type="int" name="IBRION">    -1</i>
   <i type="int" name="ISIF">     2</i>
   <i name="PSTRESS">      0.00000000</i>
   <i name="EDIFFG">      0.00000010</i>
   <i type="int" name="NFREE">     0</i>
   <i name="POTIM">      0.50000000</i>
   <i name="SMASS">     -3.00000000</i>
   <i name="SCALEE">      1.00000000</i>
  </separator>
  <separator name="ionic md" >
   <i name="TEBEG">      0.00010000</i>
   <i name="TEEND">      0.00010000</i>
   <i type="int" name="NBLOCK">     1</i>
   <i type="int" name="KBLOCK">     1</i>
   <i type="int" name="NPACO">   256</i>
   <i name="APACO">     16.00000000</i>
  </separator>
  <separator name="symmetry" >
   <i type="int" name="ISYM">     2</i>
   <i name="SYMPREC">      0.00001000</i>
  </separator>
  <separator name="dos" >
   <i type="logical" name="LORBIT"> F  </i>
   <v name="RWIGS">     -1.00000000</v>
   <i type="int" name="NEDOS">   301</i>
   <i name="EMIN">     10.00000000</i>
   <i name="EMAX">    -10.00000000</i>
   <i name="EFERMI">      0.00000000</i>
  </separator>
  <separator name="writing" >
   <i type="int" name="NWRITE">     2</i>
   <i type="logical" name="LWAVE"> F  </i>
   <i type="logical" name="LCHARG"> F  </i>
   <i type="logical" name="LPARD"> F  </i>
   <i type="logical" name="LVTOT"> F  </i>
   <i type="logical" name="LVHAR"> F  </i>
   <i type="logical" name="LELF"> F  </i>
   <i type="logical" name="LOPTICS"> F  </i>
   <v name="STM">      0.00000000      0.00000000      0.00000000      0.00000000      0.00000000      0.00000000      0.00000000</v>
  </separator>
  <separator name="performance" >
   <i type="int" name="NPAR">     4</i>
   <i type="int" name="NSIM">     4</i>
   <i type="int" name="NBLK">    -1</i>
   <i type="logical" name="LPLANE"> T  </i>
   <i type="logical" name="LSCALAPACK"> T  </i>
   <i type="logical" name="LSCAAWARE"> F  </i>
   <i type="logical" name="LSCALU"> F  </i>
   <i type="logical" name="LASYNC"> F  </i>
   <i type="logical" name="LORBITALREAL"> F  </i>
  </separator>
  <separator name="miscellaneous" >
   <i type="int" name="IDIOT">     3</i>
   <i type="logical" name="LMUSIC"> F  </i>
   <v name="POMASS">     28.08500000</v>
   <v name="DARWINR">      0.00000000</v>
   <v name="DARWINV">      1.00000000</v>
   <i type="logical" name="LCORR"> T  </i>
  </separator>
  <i type="logical" name="GGA_COMPAT"> T  </i>
  <i type="logical" name="LBERRY"> F  </i>
  <i type="int" name="ICORELEVEL">     0</i>
  <i type="logical" name="LDAU"> F  </i>
  <i type="int" name="I_CONSTRAINED_M">     0</i>
  <separator name="electronic exchange-correlation" >
   <i type="string" name="GGA">--</i>
   <i type="int" name="VOSKOWN">     0</i>
   <i type="logical" name="LHFCALC"> F  </i>
   <i type="string" name="PRECFOCK"></i>
   <i type="logical" name="LSYMGRAD"> F  </i>
   <i type="logical" name="LHFONE"> F  </i>
   <i type="logical" name="LRHFCALC"> F  </i>
   <i type="logical" name="LTHOMAS"> F  </i>
   <i type="logical" name="LMODELHF"> F  </i>
   <i name="ENCUT4O">     -1.00000000</i>
   <i type="int" name="EXXOEP">     0</i>
   <i type="int" name="FOURORBIT">     0</i>
   <i name="AEXX">      0.00000000</i>
   <i name="HFALPHA">      0.00000000</i>
   <i name="MCALPHA">      0.00000000</i>
   <i name="ALDAX">      1.00000000</i>
   <i name="AGGAX">      1.00000000</i>
   <i name="ALDAC">      1.00000000</i>
   <i name="AGGAC">      1.00000000</i>
   <i type="int" name="NKREDX">     1</i>
   <i type="int" name="NKREDY">     1</i>
   <i type="int" name="NKREDZ">     1</i>
   <i type="logical" name="SHIFTRED"> F  </i>
   <i type="logical" name="ODDONLY"> F  </i>
   <i type="logical" name="EVENONLY"> F  </i>
   <i type="int" name="LMAXFOCK">     0</i>
   <i type="int" name="NMAXFOCKAE">     0</i>
   <i type="logical" name="LFOCKAEDFT"> F  </i>
   <i name="HFSCREEN">      0.00000000</i>
   <i name="HFSCREENC">      0.00000000</i>
   <i type="int" name="NBANDSGWLOW">     0</i>
  </separator>
  <separator name="vdW DFT" >
   <i type="logical" name="LUSE_VDW"> F  </i>
   <i name="Zab_VDW">     -0.84910000</i>
   <i name="PARAM1">      0.12340000</i>
   <i name="PARAM2">      1.00000000</i>
   <i name="PARAM3">      0.00000000</i>
  </separator>
  <separator name="model GW" >
   <i type="int" name="MODEL_GW">     0</i>
   <i name="MODEL_EPS0">     12.24990743</i>
   <i name="MODEL_ALPHA">      1.00000000</i>
  </separator>
  <separator name="linear response parameters" >
   <i type="logical" name="LEPSILON"> F  </i>
   <i type="logical" name="LRPA"> F  </i>
   <i type="logical" name="LNABLA"> F  </i>
   <i type="logical" name="LVEL"> F  </i>
   <i type="int" name="KINTER">     0</i>
   <i name="CSHIFT">      0.10000000</i>
   <i name="OMEGAMAX">     -1.00000000</i>
   <i name="DEG_THRESHOLD">      0.00200000</i>
  </separator>
  <separator name="orbital magnetization" >
   <i type="logical" name="NUCIND"> F  </i>
   <v name="MAGPOS">      0.00000000      0.00000000      0.00000000</v>
   <i type="logical" name="LNICSALL"> T  </i>
   <i type="logical" name="ORBITALMAG"> F  </i>
   <i type="logical" name="LMAGBLOCH"> F  </i>
   <i type="logical" name="LCHIMAG"> F  </i>
   <i type="logical" name="LGAUGE"> T  </i>
   <i type="int" name="MAGATOM">     0</i>
   <v name="MAGDIPOL">      0.00000000      0.00000000      0.00000000</v>
   <v name="AVECCONST">      0.00000000      0.00000000      0.00000000</v>
  </separator>
  <separator name="response functions" >
   <i type="logical" name="LADDER"> F  </i>
   <i type="logical" name="LFXC"> F  </i>
   <i type="logical" name="LHARTREE"> T  </i>
   <i type="int" name="IBSE">     0</i>
   <v type="int" name="KPOINT">    -1     0     0     0</v>
   <i type="logical" name="LTCTE"> F  </i>
   <i type="logical" name="LTETE"> F  </i>
   <i type="logical" name="LTRIPLET"> F  </i>
   <i type="logical" name="LFXCEPS"> F  </i>
   <i type="logical" name="LFXHEG"> F  </i>
   <i type="int" name="NATURALO">     0</i>
   <i type="logical" name="L2ORDER"> F  </i>
   <i type="logical" name="LUSEW"> F  </i>
   <i name="ENCUTGW">     -2.00000000</i>
   <i name="ENCUTGWSOFT">     -2.00000000</i>
   <i name="ENCUTLF">     -1.00000000</i>
   <i type="int" name="LMAXMP2">    -1</i>
   <i name="SCISSOR">      0.00000000</i>
   <i type="int" name="NOMEGA">     0</i>
   <i type="int" name="NOMEGAR">     0</i>
   <i type="int" name="NBANDSGW">    -1</i>
   <i type="int" name="NBANDSO">    -1</i>
   <i type="int" name="NBANDSV">    -1</i>
   <i type="int" name="NELM">     1</i>
   <i type="int" name="NELMHF">     1</i>
   <i type="int" name="DIM">     3</i>
   <i type="int" name="ANTIRES">     0</i>
   <i name="OMEGAMAX">    -30.00000000</i>
   <i name="OMEGAMIN">    -30.00000000</i>
   <i name="OMEGATL">   -200.00000000</i>
   <i type="int" name="OMEGAGRID">     0</i>
   <i name="CSHIFT">     -0.10000000</i>
   <i type="logical" name="SELFENERGY"> F  </i>
   <i type="logical" name="LSPECTRAL"> F  </i>
   <i type="logical" name="LSPECTRALGW"> F  </i>
   <i type="logical" name="LSINGLES"> F  </i>
   <i type="logical" name="LFERMIGW"> F  </i>
   <i type="logical" name="ODDONLYGW"> F  </i>
   <i type="logical" name="EVENONLYGW"> F  </i>
   <i type="int" name="NKREDLFX">     1</i>
   <i type="int" name="NKREDLFY">     1</i>
   <i type="int" name="NKREDLFZ">     1</i>
   <i type="int" name="MAXMEM">  1800</i>
   <i type="int" name="TELESCOPE">     0</i>
   <i type="int" name="TAUPAR">     1</i>
   <i type="int" name="OMEGAPAR">    -1</i>
   <i name="LAMBDA">      1.00000000</i>
  </separator>
  <separator name="External order field" >
   <i name="OFIELD_KAPPA">      0.00000000</i>
   <v name="OFIELD_K">      0.00000000      0.00000000      0.00000000</v>
   <i name="OFIELD_Q6_NEAR">      0.00000000</i>
   <i name="OFIELD_Q6_FAR">      0.00000000</i>
   <i name="OFIELD_A">      0.00000000</i>
  </separator>
 </parameters>
 <atominfo>
  <atoms>      64 </atoms>
  <types>       1 </types>
  <array name="atoms" >
   <dimension dim="1">ion</dimension>
   <field type="string">element</field>
   <field type="int">atomtype</field>
   <set>
    <rc><c>Si</c><c>   1</c></rc>
    <rc><c>Si</c><c>   1</c></rc>
    <rc><c>Si</c><c>   1</c></rc>
    <rc><c>Si</c><c>   1</c></rc>
    <rc><c>Si</c><c>   1</c></rc>
    <rc><c>Si</c><c>   1</c></rc>
    <rc><c>Si</c><c>   1</c></rc>
    <rc><c>Si</c><c>   1</c></rc>
    <rc><c>Si</c><c>   1</c></rc>
    <rc><c>Si</c><c>   1</c></rc>
    <rc><c>Si</c><c>   1</c></rc>
    <rc><c>Si</c><c>   1</c></rc>
    <rc><c>Si</c><c>   1</c></rc>
    <rc><c>Si</c><c>   1</c></rc>
    <rc><c>Si</c><c>   1</c></rc>
    <rc><c>Si</c><c>   1</c></rc>
    <rc><c>Si</c><c>   1</c></rc>
    <rc><c>Si</c><c>   1</c></rc>
    <rc><c>Si</c><c>   1</c></rc>
    <rc><c>Si</c><c>   1</c></rc>
    <rc><c>Si</c><c>   1</c></rc>
    <rc><c>Si</c><c>   1</c></rc>
    <rc><c>Si</c><c>   1</c></rc>
    <rc><c>Si</c><c>   1</c></rc>
    <rc><c>Si</c><c>   1</c></rc>
    <rc><c>Si</c><c>   1</c></rc>
    <rc><c>Si</c><c>   1</c></rc>
    <rc><c>Si</c><c>   1</c></rc>
    <rc><c>Si</c><c>   1</c></rc>
    <rc><c>Si</c><c>   1</c></rc>
    <rc><c>Si</c><c>   1</c></rc>
    <rc><c>Si</c><c>   1</c></rc>
    <rc><c>Si</c><c>   1</c></rc>
    <rc><c>Si</c><c>   1</c></rc>
    <rc><c>Si</c><c>   1</c></rc>
    <rc><c>Si</c><c>   1</c></rc>
    <rc><c>Si</c><c>   1</c></rc>
    <rc><c>Si</c><c>   1</c></rc>
    <rc><c>Si</c><c>   1</c></rc>
    <rc><c>Si</c><c>   1</c></rc>
    <rc><c>Si</c><c>   1</c></rc>
    <rc><c>Si</c><c>   1</c></rc>
    <rc><c>Si</c><c>   1</c></rc>
    <rc><c>Si</c><c>   1</c></rc>
    <rc><c>Si</c><c>   1</c></rc>
    <rc><c>Si</c><c>   1</c></rc>
    <rc><c>Si</c><c>   1</c></rc>
    <rc><c>Si</c><c>   1</c></rc>
    <rc><c>Si</c><c>   1</c></rc>
    <rc><c>Si</c><c>   1</c></rc>
    <rc><c>Si</c><c>   1</c></rc>
    <rc><c>Si</c><c>   1</c></rc>
    <rc><c>Si</c><c>   1</c></rc>
    <rc><c>Si</c><c>   1</c></rc>
    <rc><c>Si</c><c>   1</c></rc>
    <rc><c>Si</c><c>   1</c></rc>
    <rc><c>Si</c><c>   1</c></rc>
    <rc><c>Si</c><c>   1</c></rc>
    <rc><c>Si</c><c>   1</c></rc>
    <rc><c>Si</c><c>   1</c></rc>
    <rc><c>Si</c><c>   1</c></rc>
    <rc><c>Si</c><c>   1</c></rc>
    <rc><c>Si</c><c>   1</c></rc>
    <rc><c>Si</c><c>   1</c></rc>
   </set>
  </array>
  <array name="atomtypes" >
   <dimension dim="1">type</dimension>
   <field type="int">atomspertype</field>
   <field type="string">element</field>
   <field>mass</field>
   <field>valence</field>
   <field type="string">pseudopotential</field>
   <set>
    <rc><c>  64</c><c>Si</c><c>     28.08500000</c><c>      4.00000000</c><c>  PAW_PBE Si 05Jan2001                  </c></rc>
   </set>
  </array>
 </atominfo>
 <structure name="initialpos" >
  <crystal>
   <varray name="basis" >
    <v>      10.93252578       0.00000000       0.00000000 </v>
    <v>       0.00000000      10.93252578       0.00000000 </v>
    <v>       0.00000000       0.00000000      10.93252578 </v>
   </varray>
   <i name="volume">   1306.65679237 </i>
   <varray name="rec_basis" >
    <v>       0.09147017       0.00000000       0.00000000 </v>
    <v>       0.00000000       0.09147017       0.00000000 </v>
    <v>       0.00000000       0.00000000       0.09147017 </v>
   </varray>
  </crystal>
  <varray name="positions" >
   <v>       0.44024411       0.43750000       0.43750000 </v>
   <v>       0.93750000       0.43750000       0.43750000 </v>
   <v>       0.43750000       0.93750000       0.43750000 </v>
   <v>       0.93750000       0.93750000       0.43750000 </v>
   <v>       0.43750000       0.43750000       0.93750000 </v>
   <v>       0.93750000       0.43750000       0.93750000 </v>
   <v>       0.43750000       0.93750000       0.93750000 </v>
   <v>       0.93750000       0.93750000       0.93750000 </v>
   <v>       0.43750000       0.18750000       0.18750000 </v>
   <v>       0.93750000       0.18750000       0.18750000 </v>
   <v>       0.43750000       0.68750000       0.18750000 </v>
   <v>       0.93750000       0.68750000       0.18750000 </v>
   <v>       0.43750000       0.18750000       0.68750000 </v>
   <v>       0.93750000       0.18750000       0.68750000 </v>
   <v>       0.43750000       0.68750000       0.68750000 </v>
   <v>       0.93750000       0.68750000       0.68750000 </v>
   <v>       0.18750000       0.43750000       0.18750000 </v>
   <v>       0.68750000       0.43750000       0.18750000 </v>
   <v>       0.18750000       0.93750000       0.18750000 </v>
   <v>       0.68750000       0.93750000       0.18750000 </v>
   <v>       0.18750000       0.43750000       0.68750000 </v>
   <v>       0.68750000       0.43750000       0.68750000 </v>
   <v>       0.18750000       0.93750000       0.68750000 </v>
   <v>       0.68750000       0.93750000       0.68750000 </v>
   <v>       0.18750000       0.18750000       0.43750000 </v>
   <v>       0.68750000       0.18750000       0.43750000 </v>
   <v>       0.18750000       0.68750000       0.43750000 </v>
   <v>       0.68750000       0.68750000       0.43750000 </v>
   <v>       0.18750000       0.18750000       0.93750000 </v>
   <v>       0.68750000       0.18750000       0.93750000 </v>
   <v>       0.18750000       0.68750000       0.93750000 </v>
   <v>       0.68750000       0.68750000       0.93750000 </v>
   <v>       0.06250000       0.06250000       0.06250000 </v>
   <v>       0.56250000       0.06250000       0.06250000 </v>
   <v>       0.06250000       0.56250000       0.06250000 </v>
   <v>       0.56250000       0.56250000       0.06250000 </v>
   <v>       0.06250000       0.06250000       0.56250000 </v>
   <v>       0.56250000       0.06250000       0.56250000 </v>
   <v>       0.06250000       0.56250000       0.56250000 </v>
   <v>       0.56250000       0.56250000       0.56250000 </v>
   <v>       0.06250000       0.31250000       0.31250000 </v>
   <v>       0.56250000       0.31250000       0.31250000 </v>
   <v>       0.06250000       0.81250000       0.31250000 </v>
   <v>       0.56250000       0.81250000       0.31250000 </v>
   <v>       0.06250000       0.31250000       0.81250000 </v>
   <v>       0.56250000       0.31250000       0.81250000 </v>
   <v>       0.06250000       0.81250000       0.81250000 </v>
   <v>       0.56250000       0.81250000       0.81250000 </v>
   <v>       0.31250000       0.06250000       0.31250000 </v>
   <v>       0.80975589       0.06250000       0.31250000 </v>
   <v>       0.31250000       0.56250000       0.31250000 </v>
   <v>       0.81250000       0.56250000       0.31250000 </v>
   <v>       0.31250000       0.06250000       0.81250000 </v>
   <v>       0.81250000       0.06250000       0.81250000 </v>
   <v>       0.31250000       0.56250000       0.81250000 </v>
   <v>       0.81250000       0.56250000       0.81250000 </v>
   <v>       0.31250000       0.31250000       0.06250000 </v>
   <v>       0.81250000       0.31250000       0.06250000 </v>
   <v>       0.31250000       0.81250000       0.06250000 </v>
   <v>       0.81250000       0.81250000       0.06250000 </v>
   <v>       0.31250000       0.31250000       0.56250000 </v>
   <v>       0.81250000       0.31250000       0.56250000 </v>
   <v>       0.31250000       0.81250000       0.56250000 </v>
   <v>       0.81250000       0.81250000       0.56250000 </v>
  </varray>
 </structure>
 <calculation>
  <scstep>
   <time name="dav">    5.63    5.63</time>
   <time name="total">    5.88    5.91</time>
   <energy>
    <i name="alphaZ">    105.52440745 </i>
    <i name="ewald">  -7265.46992099 </i>
    <i name="hartreedc">   -361.71372260 </i>
    <i name="XCdc">   -597.75714136 </i>
    <i name="pawpsdc">   5639.92317535 </i>
    <i name="pawaedc">  -4513.95313856 </i>
    <i name="eentropy">     -0.00121663 </i>
    <i name="bandstr">    856.87635804 </i>
    <i name="atom">   6596.14994790 </i>
    <i name="e_fr_energy">    459.57874861 </i>
    <i name="e_wo_entrp">    459.57996524 </i>
    <i name="e_0_energy">    459.57935692 </i>
   </energy>
  </scstep>
  <scstep>
   <time name="dav">    6.51    6.52</time>
   <time name="total">    6.51    6.52</time>
   <energy>
    <i name="e_fr_energy">   -300.08320624 </i>
    <i name="e_wo_entrp">   -300.08320624 </i>
    <i name="e_0_energy">   -300.08320624 </i>
   </energy>
  </scstep>
  <scstep>
   <time name="dav">    6.10    6.62</time>
   <time name="total">    6.10    6.69</time>
   <energy>
    <i name="e_fr_energy">   -350.93704176 </i>
    <i name="e_wo_entrp">   -350.93704176 </i>
    <i name="e_0_energy">   -350.93704176 </i>
   </energy>
  </scstep>
  <scstep>
   <time name="dav">    6.06    6.58</time>
   <time name="total">    6.06    6.58</time>
   <energy>
    <i name="e_fr_energy">   -352.26660204 </i>
    <i name="e_wo_entrp">   -352.26660204 </i>
    <i name="e_0_energy">   -352.26660204 </i>
   </energy>
  </scstep>
  <scstep>
   <time name="dav">    6.05    6.51</time>
   <time name="total">    6.37    6.86</time>
   <energy>
    <i name="e_fr_energy">   -352.31296355 </i>
    <i name="e_wo_entrp">   -352.31296355 </i>
    <i name="e_0_energy">   -352.31296355 </i>
   </energy>
  </scstep>
  <scstep>
   <time name="dav">    5.87    6.37</time>
   <time name="total">    6.45    7.00</time>
   <energy>
    <i name="e_fr_energy">   -348.58446250 </i>
    <i name="e_wo_entrp">   -348.58446250 </i>
    <i name="e_0_energy">   -348.58446250 </i>
   </energy>
  </scstep>
  <scstep>
   <time name="dav">    5.82    6.31</time>
   <time name="total">    6.39    6.94</time>
   <energy>
    <i name="e_fr_energy">   -346.87183342 </i>
    <i name="e_wo_entrp">   -346.87183342 </i>
    <i name="e_0_energy">   -346.87183342 </i>
   </energy>
  </scstep>
  <scstep>
   <time name="dav">    5.99    6.49</time>
   <time name="total">    6.55    7.12</time>
   <energy>
    <i name="e_fr_energy">   -346.89811365 </i>
    <i name="e_wo_entrp">   -346.89811365 </i>
    <i name="e_0_energy">   -346.89811365 </i>
   </energy>
  </scstep>
  <scstep>
   <time name="dav">    6.15    6.68</time>
   <time name="total">    6.71    7.30</time>
   <energy>
    <i name="e_fr_energy">   -346.90485834 </i>
    <i name="e_wo_entrp">   -346.90485834 </i>
    <i name="e_0_energy">   -346.90485834 </i>
   </energy>
  </scstep>
  <scstep>
   <time name="dav">    5.71    6.19</time>
   <time name="total">    6.27    6.84</time>
   <energy>
    <i name="e_fr_energy">   -346.90690110 </i>
    <i name="e_wo_entrp">   -346.90690110 </i>
    <i name="e_0_energy">   -346.90690110 </i>
   </energy>
  </scstep>
  <scstep>
   <time name="dav">    6.06    6.57</time>
   <time name="total">    6.62    7.18</time>
   <energy>
    <i name="e_fr_energy">   -346.90687719 </i>
    <i name="e_wo_entrp">   -346.90687719 </i>
    <i name="e_0_energy">   -346.90687719 </i>
   </energy>
  </scstep>
  <scstep>
   <time name="dav">    5.99    6.49</time>
   <time name="total">    6.55    7.10</time>
   <energy>
    <i name="e_fr_energy">   -346.90689213 </i>
    <i name="e_wo_entrp">   -346.90689213 </i>
    <i name="e_0_energy">   -346.90689213 </i>
   </energy>
  </scstep>
  <scstep>
   <time name="dav">    5.94    6.45</time>
   <time name="total">    6.50    7.06</time>
   <energy>
    <i name="e_fr_energy">   -346.90689256 </i>
    <i name="e_wo_entrp">   -346.90689256 </i>
    <i name="e_0_energy">   -346.90689256 </i>
   </energy>
  </scstep>
  <scstep>
   <time name="dav">    6.13    6.65</time>
   <time name="total">    6.69    7.27</time>
   <energy>
    <i name="e_fr_energy">   -346.90689314 </i>
    <i name="e_wo_entrp">   -346.90689314 </i>
    <i name="e_0_energy">   -346.90689314 </i>
   </energy>
  </scstep>
  <scstep>
   <time name="dav">    5.24    5.69</time>
   <time name="total">    5.80    6.30</time>
   <energy>
    <i name="e_fr_energy">   -346.90689288 </i>
    <i name="e_wo_entrp">   -346.90689288 </i>
    <i name="e_0_energy">   -346.90689288 </i>
   </energy>
  </scstep>
  <scstep>
   <time name="dav">    4.12    4.47</time>
   <time name="total">    4.68    5.08</time>
   <energy>
    <i name="e_fr_energy">   -346.90689298 </i>
    <i name="e_wo_entrp">   -346.90689298 </i>
    <i name="e_0_energy">   -346.90689298 </i>
   </energy>
  </scstep>
  <scstep>
   <time name="dav">    4.08    4.42</time>
   <time name="total">    4.63    5.03</time>
   <energy>
    <i name="e_fr_energy">   -346.90689296 </i>
    <i name="e_wo_entrp">   -346.90689296 </i>
    <i name="e_0_energy">   -346.90689296 </i>
   </energy>
  </scstep>
  <scstep>
   <time name="dav">    4.08    4.42</time>
   <time name="total">    4.63    5.03</time>
   <energy>
    <i name="e_fr_energy">   -346.90689297 </i>
    <i name="e_wo_entrp">   -346.90689297 </i>
    <i name="e_0_energy">   -346.90689297 </i>
   </energy>
  </scstep>
  <scstep>
   <time name="dav">    4.07    4.42</time>
   <time name="total">    4.32    4.69</time>
   <energy>
    <i name="alphaZ">    105.52440745 </i>
    <i name="ewald">  -7265.46992099 </i>
    <i name="hartreedc">   -485.14453280 </i>
    <i name="XCdc">   -577.61228877 </i>
    <i name="pawpsdc">  27883.44087192 </i>
    <i name="pawaedc"> -26764.15880167 </i>
    <i name="eentropy">      0.00000000 </i>
    <i name="bandstr">    160.36342398 </i>
    <i name="atom">   6596.14994790 </i>
    <i name="e_fr_energy">   -346.90689298 </i>
    <i name="e_wo_entrp">   -346.90689298 </i>
    <i name="e_0_energy">   -346.90689298 </i>
   </energy>
  </scstep>
  <structure>
   <crystal>
    <varray name="basis" >
     <v>      10.93252578       0.00000000       0.00000000 </v>
     <v>       0.00000000      10.93252578       0.00000000 </v>
     <v>       0.00000000       0.00000000      10.93252578 </v>
    </varray>
    <i name="volume">   1306.65679237 </i>
    <varray name="rec_basis" >
     <v>       0.09147017       0.00000000       0.00000000 </v>
     <v>       0.00000000       0.09147017       0.00000000 </v>
     <v>       0.00000000       0.00000000       0.09147017 </v>
    </varray>
   </crystal>
   <varray name="positions" >
    <v>       0.44024411       0.43750000       0.43750000 </v>
    <v>       0.93750000       0.43750000       0.43750000 </v>
    <v>       0.43750000       0.93750000       0.43750000 </v>
    <v>       0.93750000       0.93750000       0.43750000 </v>
    <v>       0.43750000       0.43750000       0.93750000 </v>
    <v>       0.93750000       0.43750000       0.93750000 </v>
    <v>       0.43750000       0.93750000       0.93750000 </v>
    <v>       0.93750000       0.93750000       0.93750000 </v>
    <v>       0.43750000       0.18750000       0.18750000 </v>
    <v>       0.93750000       0.18750000       0.18750000 </v>
    <v>       0.43750000       0.68750000       0.18750000 </v>
    <v>       0.93750000       0.68750000       0.18750000 </v>
    <v>       0.43750000       0.18750000       0.68750000 </v>
    <v>       0.93750000       0.18750000       0.68750000 </v>
    <v>       0.43750000       0.68750000       0.68750000 </v>
    <v>       0.93750000       0.68750000       0.68750000 </v>
    <v>       0.18750000       0.43750000       0.18750000 </v>
    <v>       0.68750000       0.43750000       0.18750000 </v>
    <v>       0.18750000       0.93750000       0.18750000 </v>
    <v>       0.68750000       0.93750000       0.18750000 </v>
    <v>       0.18750000       0.43750000       0.68750000 </v>
    <v>       0.68750000       0.43750000       0.68750000 </v>
    <v>       0.18750000       0.93750000       0.68750000 </v>
    <v>       0.68750000       0.93750000       0.68750000 </v>
    <v>       0.18750000       0.18750000       0.43750000 </v>
    <v>       0.68750000       0.18750000       0.43750000 </v>
    <v>       0.18750000       0.68750000       0.43750000 </v>
    <v>       0.68750000       0.68750000       0.43750000 </v>
    <v>       0.18750000       0.18750000       0.93750000 </v>
    <v>       0.68750000       0.18750000       0.93750000 </v>
    <v>       0.18750000       0.68750000       0.93750000 </v>
    <v>       0.68750000       0.68750000       0.93750000 </v>
    <v>       0.06250000       0.06250000       0.06250000 </v>
    <v>       0.56250000       0.06250000       0.06250000 </v>
    <v>       0.06250000       0.56250000       0.06250000 </v>
    <v>       0.56250000       0.56250000       0.06250000 </v>
    <v>       0.06250000       0.06250000       0.56250000 </v>
    <v>       0.56250000       0.06250000       0.56250000 </v>
    <v>       0.06250000       0.56250000       0.56250000 </v>
    <v>       0.56250000       0.56250000       0.56250000 </v>
    <v>       0.06250000       0.31250000       0.31250000 </v>
    <v>       0.56250000       0.31250000       0.31250000 </v>
    <v>       0.06250000       0.81250000       0.31250000 </v>
    <v>       0.56250000       0.81250000       0.31250000 </v>
    <v>       0.06250000       0.31250000       0.81250000 </v>
    <v>       0.56250000       0.31250000       0.81250000 </v>
    <v>       0.06250000       0.81250000       0.81250000 </v>
    <v>       0.56250000       0.81250000       0.81250000 </v>
    <v>       0.31250000       0.06250000       0.31250000 </v>
    <v>       0.80975589       0.06250000       0.31250000 </v>
    <v>       0.31250000       0.56250000       0.31250000 </v>
    <v>       0.81250000       0.56250000       0.31250000 </v>
    <v>       0.31250000       0.06250000       0.81250000 </v>
    <v>       0.81250000       0.06250000       0.81250000 </v>
    <v>       0.31250000       0.56250000       0.81250000 </v>
    <v>       0.81250000       0.56250000       0.81250000 </v>
    <v>       0.31250000       0.31250000       0.06250000 </v>
    <v>       0.81250000       0.31250000       0.06250000 </v>
    <v>       0.31250000       0.81250000       0.06250000 </v>
    <v>       0.81250000       0.81250000       0.06250000 </v>
    <v>       0.31250000       0.31250000       0.56250000 </v>
    <v>       0.81250000       0.31250000       0.56250000 </v>
    <v>       0.31250000       0.81250000       0.56250000 </v>
    <v>       0.81250000       0.81250000       0.56250000 </v>
   </varray>
  </structure>
  <varray name="forces" >
   <v>      -0.38784343       0.00067601      -0.00070357 </v>
   <v>       0.00198209       0.00088848      -0.00124608 </v>
   <v>       0.00159484       0.00090341      -0.00090409 </v>
   <v>      -0.09324974       0.06095564      -0.06096338 </v>
   <v>       0.00185380       0.00074575      -0.00074628 </v>
   <v>      -0.00630844       0.00067709      -0.00067466 </v>
   <v>      -0.01221177       0.00070138      -0.00063795 </v>
   <v>       0.00201088       0.00124570      -0.00088920 </v>
   <v>      -0.01260782       0.00186652       0.00367037 </v>
   <v>      -0.09310817      -0.06072373       0.06118229 </v>
   <v>      -0.01343734       0.00202627      -0.00196045 </v>
   <v>       0.00143089      -0.00065568       0.00101347 </v>
   <v>      -0.01343895      -0.00336377       0.00330072 </v>
   <v>       0.00143262      -0.00148036       0.00112332 </v>
   <v>      -0.01234307      -0.00351568      -0.00202545 </v>
   <v>      -0.00616294      -0.00089994       0.00045050 </v>
   <v>       0.00502991      -0.00327021       0.00490881 </v>
   <v>       0.00727872      -0.00370127      -0.00689664 </v>
   <v>       0.00129310      -0.00113989      -0.00277149 </v>
   <v>      -0.09477616      -0.06633571      -0.06426115 </v>
   <v>       0.00618018       0.00192206      -0.00631404 </v>
   <v>      -0.00041228       0.00207702       0.00500207 </v>
   <v>       0.00039913      -0.00042188       0.00126075 </v>
   <v>       0.00249807      -0.00098412      -0.00277125 </v>
   <v>       0.00592193       0.00647067      -0.00176233 </v>
   <v>      -0.09003485       0.06042051       0.06330999 </v>
   <v>       0.00502978      -0.00496095       0.00332435 </v>
   <v>       0.00727553       0.00661855       0.00397714 </v>
   <v>       0.00039933      -0.00120625       0.00036947 </v>
   <v>       0.00249694       0.00305847       0.00069501 </v>
   <v>       0.00155314       0.00261627       0.00098552 </v>
   <v>      -0.00519023      -0.00116247       0.00091573 </v>
   <v>      -0.00618018      -0.00192206       0.00631404 </v>
   <v>       0.00041228      -0.00207702      -0.00500207 </v>
   <v>      -0.00039913       0.00042188      -0.00126075 </v>
   <v>      -0.00249807       0.00098412       0.00277125 </v>
   <v>      -0.00502991       0.00327021      -0.00490881 </v>
   <v>      -0.00727872       0.00370127       0.00689664 </v>
   <v>      -0.00129310       0.00113989       0.00277149 </v>
   <v>       0.09477616       0.06633571       0.06426115 </v>
   <v>      -0.00592193      -0.00647067       0.00176233 </v>
   <v>       0.09003485      -0.06042051      -0.06330999 </v>
   <v>      -0.00502978       0.00496095      -0.00332435 </v>
   <v>      -0.00727553      -0.00661855      -0.00397714 </v>
   <v>      -0.00039933       0.00120625      -0.00036947 </v>
   <v>      -0.00249694      -0.00305847      -0.00069501 </v>
   <v>      -0.00155314      -0.00261627      -0.00098552 </v>
   <v>       0.00519023       0.00116247      -0.00091573 </v>
   <v>      -0.00198209      -0.00088848       0.00124608 </v>
   <v>       0.38784343      -0.00067601       0.00070357 </v>
   <v>       0.09324974      -0.06095564       0.06096338 </v>
   <v>      -0.00159484      -0.00090341       0.00090409 </v>
   <v>       0.00630844      -0.00067709       0.00067466 </v>
   <v>      -0.00185380      -0.00074575       0.00074628 </v>
   <v>      -0.00201088      -0.00124570       0.00088920 </v>
   <v>       0.01221177      -0.00070138       0.00063795 </v>
   <v>      -0.00143262       0.00148036      -0.00112332 </v>
   <v>       0.01343895       0.00336377      -0.00330072 </v>
   <v>       0.00616294       0.00089994      -0.00045050 </v>
   <v>       0.01234307       0.00351568       0.00202545 </v>
   <v>       0.09310817       0.06072373      -0.06118229 </v>
   <v>       0.01260782      -0.00186652      -0.00367037 </v>
   <v>      -0.00143089       0.00065568      -0.00101347 </v>
   <v>       0.01343734      -0.00202627       0.00196045 </v>
  </varray>
  <varray name="stress" >
   <v>      -0.01748439      -0.00019528      -0.00011146 </v>
   <v>      -0.00019530       0.02103310       0.66982393 </v>
   <v>      -0.00011148       0.66982391       0.02071408 </v>
  </varray>
  <energy>
   <i name="e_fr_energy">   -346.90689298 </i>
   <i name="e_wo_entrp">   -346.90689298 </i>
   <i name="e_0_energy">      0.00000000 </i>
  </energy>
  <time name="totalsc">  125.66  134.49</time>
  <eigenvalues>
   <array>
    <dimension dim="1">band</dimension>
    <dimension dim="2">kpoint</dimension>
    <dimension dim="3">spin</dimension>
    <field>eigene</field>
    <field>occ</field>
    <set>
     <set comment="spin 1">
      <set comment="kpoint 1">
       <r>   -5.9931    1.0000 </r>
       <r>   -5.4692    1.0000 </r>
       <r>   -5.4638    1.0000 </r>
       <r>   -5.4616    1.0000 </r>
       <r>   -4.9697    1.0000 </r>
       <r>   -4.9645    1.0000 </r>
       <r>   -4.9622    1.0000 </r>
       <r>   -4.5313    1.0000 </r>
       <r>   -4.4367    1.0000 </r>
       <r>   -4.4312    1.0000 </r>
       <r>   -4.4284    1.0000 </r>
       <r>   -4.0252    1.0000 </r>
       <r>   -4.0210    1.0000 </r>
       <r>   -4.0162    1.0000 </r>
       <r>   -4.0150    1.0000 </r>
       <r>   -4.0127    1.0000 </r>
       <r>   -4.0113    1.0000 </r>
       <r>   -3.8267    1.0000 </r>
       <r>   -3.8262    1.0000 </r>
       <r>   -3.8219    1.0000 </r>
       <r>   -3.3314    1.0000 </r>
       <r>   -3.3266    1.0000 </r>
       <r>   -3.3217    1.0000 </r>
       <r>   -2.9628    1.0000 </r>
       <r>   -2.9601    1.0000 </r>
       <r>   -2.9558    1.0000 </r>
       <r>   -2.7999    1.0000 </r>
       <r>   -2.7943    1.0000 </r>
       <r>   -2.7901    1.0000 </r>
       <r>   -2.7892    1.0000 </r>
       <r>   -2.7872    1.0000 </r>
       <r>   -2.7860    1.0000 </r>
       <r>   -1.2596    1.0000 </r>
       <r>   -1.2506    1.0000 </r>
       <r>   -1.2473    1.0000 </r>
       <r>   -1.2461    1.0000 </r>
       <r>   -1.2446    1.0000 </r>
       <r>   -1.2425    1.0000 </r>
       <r>   -1.1545    1.0000 </r>
       <r>   -1.1497    1.0000 </r>
       <r>   -1.1467    1.0000 </r>
       <r>   -1.0371    1.0000 </r>
       <r>   -1.0280    1.0000 </r>
       <r>   -1.0275    1.0000 </r>
       <r>   -0.9548    1.0000 </r>
       <r>   -0.9522    1.0000 </r>
       <r>   -0.9454    1.0000 </r>
       <r>   -0.2481    1.0000 </r>
       <r>   -0.1689    1.0000 </r>
       <r>   -0.1621    1.0000 </r>
       <r>   -0.1585    1.0000 </r>
       <r>   -0.1565    1.0000 </r>
       <r>   -0.1541    1.0000 </r>
       <r>   -0.1520    1.0000 </r>
       <r>    0.7062    1.0000 </r>
       <r>    0.7138    1.0000 </r>
       <r>    0.7160    1.0000 </r>
       <r>    1.0417    1.0000 </r>
       <r>    1.0493    1.0000 </r>
       <r>    1.0503    1.0000 </r>
       <r>    1.6528    1.0000 </r>
       <r>    1.6540    1.0000 </r>
       <r>    1.6569    1.0000 </r>
       <r>    1.6582    1.0000 </r>
       <r>    1.6592    1.0000 </r>
       <r>    1.6608    1.0000 </r>
       <r>    1.7144    1.0000 </r>
       <r>    1.7184    1.0000 </r>
       <r>    1.7190    1.0000 </r>
       <r>    2.2631    1.0000 </r>
       <r>    2.2666    1.0000 </r>
       <r>    2.2678    1.0000 </r>
       <r>    2.3680    1.0000 </r>
       <r>    2.3694    1.0000 </r>
       <r>    2.3707    1.0000 </r>
       <r>    2.3724    1.0000 </r>
       <r>    2.3754    1.0000 </r>
       <r>    2.3759    1.0000 </r>
       <r>    2.4225    1.0000 </r>
       <r>    2.4284    1.0000 </r>
       <r>    2.4315    1.0000 </r>
       <r>    2.7272    1.0000 </r>
       <r>    2.7332    1.0000 </r>
       <r>    2.7347    1.0000 </r>
       <r>    2.7352    1.0000 </r>
       <r>    2.7384    1.0000 </r>
       <r>    2.7399    1.0000 </r>
       <r>    2.9991    1.0000 </r>
       <r>    2.9992    1.0000 </r>
       <r>    3.0028    1.0000 </r>
       <r>    3.0094    1.0000 </r>
       <r>    3.0172    1.0000 </r>
       <r>    3.0176    1.0000 </r>
       <r>    3.3557    1.0000 </r>
       <r>    3.3614    1.0000 </r>
       <r>    3.3628    1.0000 </r>
       <r>    3.3792    1.0000 </r>
       <r>    3.3811    1.0000 </r>
       <r>    3.3839    1.0000 </r>
       <r>    3.4649    1.0000 </r>
       <r>    3.4673    1.0000 </r>
       <r>    3.4710    1.0000 </r>
       <r>    3.7333    1.0000 </r>
       <r>    3.7354    1.0000 </r>
       <r>    3.7373    1.0000 </r>
       <r>    3.7406    1.0000 </r>
       <r>    3.7421    1.0000 </r>
       <r>    3.7434    1.0000 </r>
       <r>    3.7788    1.0000 </r>
       <r>    3.7815    1.0000 </r>
       <r>    3.7858    1.0000 </r>
       <r>    4.0367    1.0000 </r>
       <r>    4.0982    1.0000 </r>
       <r>    4.0989    1.0000 </r>
       <r>    4.1035    1.0000 </r>
       <r>    4.3394    1.0000 </r>
       <r>    4.3422    1.0000 </r>
       <r>    4.3470    1.0000 </r>
       <r>    4.3967    1.0000 </r>
       <r>    4.4022    1.0000 </r>
       <r>    4.4052    1.0000 </r>
       <r>    4.5594    1.0000 </r>
       <r>    4.5687    1.0000 </r>
       <r>    4.8685    1.0000 </r>
       <r>    4.8717    1.0000 </r>
       <r>    4.8779    1.0000 </r>
       <r>    5.3466    1.0000 </r>
       <r>    5.3574    1.0000 </r>
       <r>    6.5636    0.0000 </r>
       <r>    6.5636    0.0000 </r>
       <r>    6.5678    0.0000 </r>
       <r>    7.0005    0.0000 </r>
       <r>    7.0069    0.0000 </r>
       <r>    7.0080    0.0000 </r>
       <r>    7.2351    0.0000 </r>
       <r>    7.4879    0.0000 </r>
       <r>    7.4929    0.0000 </r>
       <r>    7.4961    0.0000 </r>
       <r>    7.6145    0.0000 </r>
       <r>    7.6196    0.0000 </r>
       <r>    7.6205    0.0000 </r>
       <r>    7.7779    0.0000 </r>
       <r>    7.7789    0.0000 </r>
       <r>    7.7843    0.0000 </r>
       <r>    7.7998    0.0000 </r>
       <r>    7.8004    0.0000 </r>
       <r>    7.8054    0.0000 </r>
       <r>    8.0207    0.0000 </r>
       <r>    8.0264    0.0000 </r>
       <r>    8.0278    0.0000 </r>
       <r>    8.0307    0.0000 </r>
       <r>    8.0323    0.0000 </r>
       <r>    8.0345    0.0000 </r>
       <r>    8.0838    0.0000 </r>
       <r>    8.2923    0.0000 </r>
       <r>    8.2954    0.0000 </r>
       <r>    8.2979    0.0000 </r>
       <r>    8.4929    0.0000 </r>
       <r>    8.5003    0.0000 </r>
       <r>    8.5019    0.0000 </r>
       <r>    8.5046    0.0000 </r>
       <r>    8.5078    0.0000 </r>
       <r>    8.5191    0.0000 </r>
       <r>    8.5466    0.0000 </r>
      </set>
      <set comment="kpoint 2">
       <r>   -5.9931    1.0000 </r>
       <r>   -5.4675    1.0000 </r>
       <r>   -5.4648    1.0000 </r>
       <r>   -5.4623    1.0000 </r>
       <r>   -4.9679    1.0000 </r>
       <r>   -4.9656    1.0000 </r>
       <r>   -4.9630    1.0000 </r>
       <r>   -4.5312    1.0000 </r>
       <r>   -4.4345    1.0000 </r>
       <r>   -4.4322    1.0000 </r>
       <r>   -4.4297    1.0000 </r>
       <r>   -4.0244    1.0000 </r>
       <r>   -4.0197    1.0000 </r>
       <r>   -4.0162    1.0000 </r>
       <r>   -4.0157    1.0000 </r>
       <r>   -4.0135    1.0000 </r>
       <r>   -4.0120    1.0000 </r>
       <r>   -3.8267    1.0000 </r>
       <r>   -3.8260    1.0000 </r>
       <r>   -3.8219    1.0000 </r>
       <r>   -3.3283    1.0000 </r>
       <r>   -3.3275    1.0000 </r>
       <r>   -3.3240    1.0000 </r>
       <r>   -2.9627    1.0000 </r>
       <r>   -2.9603    1.0000 </r>
       <r>   -2.9558    1.0000 </r>
       <r>   -2.7990    1.0000 </r>
       <r>   -2.7924    1.0000 </r>
       <r>   -2.7910    1.0000 </r>
       <r>   -2.7903    1.0000 </r>
       <r>   -2.7874    1.0000 </r>
       <r>   -2.7865    1.0000 </r>
       <r>   -1.2591    1.0000 </r>
       <r>   -1.2496    1.0000 </r>
       <r>   -1.2487    1.0000 </r>
       <r>   -1.2480    1.0000 </r>
       <r>   -1.2436    1.0000 </r>
       <r>   -1.2414    1.0000 </r>
       <r>   -1.1547    1.0000 </r>
       <r>   -1.1496    1.0000 </r>
       <r>   -1.1468    1.0000 </r>
       <r>   -1.0372    1.0000 </r>
       <r>   -1.0280    1.0000 </r>
       <r>   -1.0276    1.0000 </r>
       <r>   -0.9590    1.0000 </r>
       <r>   -0.9472    1.0000 </r>
       <r>   -0.9461    1.0000 </r>
       <r>   -0.2481    1.0000 </r>
       <r>   -0.1691    1.0000 </r>
       <r>   -0.1607    1.0000 </r>
       <r>   -0.1601    1.0000 </r>
       <r>   -0.1589    1.0000 </r>
       <r>   -0.1532    1.0000 </r>
       <r>   -0.1502    1.0000 </r>
       <r>    0.7062    1.0000 </r>
       <r>    0.7139    1.0000 </r>
       <r>    0.7160    1.0000 </r>
       <r>    1.0421    1.0000 </r>
       <r>    1.0488    1.0000 </r>
       <r>    1.0504    1.0000 </r>
       <r>    1.6526    1.0000 </r>
       <r>    1.6538    1.0000 </r>
       <r>    1.6566    1.0000 </r>
       <r>    1.6584    1.0000 </r>
       <r>    1.6594    1.0000 </r>
       <r>    1.6612    1.0000 </r>
       <r>    1.7136    1.0000 </r>
       <r>    1.7183    1.0000 </r>
       <r>    1.7198    1.0000 </r>
       <r>    2.2631    1.0000 </r>
       <r>    2.2667    1.0000 </r>
       <r>    2.2678    1.0000 </r>
       <r>    2.3680    1.0000 </r>
       <r>    2.3691    1.0000 </r>
       <r>    2.3713    1.0000 </r>
       <r>    2.3723    1.0000 </r>
       <r>    2.3748    1.0000 </r>
       <r>    2.3765    1.0000 </r>
       <r>    2.4224    1.0000 </r>
       <r>    2.4285    1.0000 </r>
       <r>    2.4314    1.0000 </r>
       <r>    2.7271    1.0000 </r>
       <r>    2.7333    1.0000 </r>
       <r>    2.7349    1.0000 </r>
       <r>    2.7361    1.0000 </r>
       <r>    2.7376    1.0000 </r>
       <r>    2.7396    1.0000 </r>
       <r>    2.9992    1.0000 </r>
       <r>    2.9993    1.0000 </r>
       <r>    3.0023    1.0000 </r>
       <r>    3.0097    1.0000 </r>
       <r>    3.0167    1.0000 </r>
       <r>    3.0178    1.0000 </r>
       <r>    3.3564    1.0000 </r>
       <r>    3.3613    1.0000 </r>
       <r>    3.3626    1.0000 </r>
       <r>    3.3789    1.0000 </r>
       <r>    3.3810    1.0000 </r>
       <r>    3.3841    1.0000 </r>
       <r>    3.4650    1.0000 </r>
       <r>    3.4672    1.0000 </r>
       <r>    3.4711    1.0000 </r>
       <r>    3.7328    1.0000 </r>
       <r>    3.7348    1.0000 </r>
       <r>    3.7380    1.0000 </r>
       <r>    3.7418    1.0000 </r>
       <r>    3.7421    1.0000 </r>
       <r>    3.7427    1.0000 </r>
       <r>    3.7789    1.0000 </r>
       <r>    3.7811    1.0000 </r>
       <r>    3.7859    1.0000 </r>
       <r>    4.0366    1.0000 </r>
       <r>    4.0982    1.0000 </r>
       <r>    4.0989    1.0000 </r>
       <r>    4.1035    1.0000 </r>
       <r>    4.3394    1.0000 </r>
       <r>    4.3418    1.0000 </r>
       <r>    4.3473    1.0000 </r>
       <r>    4.3958    1.0000 </r>
       <r>    4.4034    1.0000 </r>
       <r>    4.4050    1.0000 </r>
       <r>    4.5593    1.0000 </r>
       <r>    4.5687    1.0000 </r>
       <r>    4.8686    1.0000 </r>
       <r>    4.8708    1.0000 </r>
       <r>    4.8787    1.0000 </r>
       <r>    5.3466    1.0000 </r>
       <r>    5.3573    1.0000 </r>
       <r>    6.5635    0.0000 </r>
       <r>    6.5636    0.0000 </r>
       <r>    6.5679    0.0000 </r>
       <r>    7.0008    0.0000 </r>
       <r>    7.0040    0.0000 </r>
       <r>    7.0106    0.0000 </r>
       <r>    7.2352    0.0000 </r>
       <r>    7.4880    0.0000 </r>
       <r>    7.4917    0.0000 </r>
       <r>    7.4971    0.0000 </r>
       <r>    7.6144    0.0000 </r>
       <r>    7.6196    0.0000 </r>
       <r>    7.6205    0.0000 </r>
       <r>    7.7775    0.0000 </r>
       <r>    7.7799    0.0000 </r>
       <r>    7.7832    0.0000 </r>
       <r>    7.7999    0.0000 </r>
       <r>    7.8010    0.0000 </r>
       <r>    7.8051    0.0000 </r>
       <r>    8.0206    0.0000 </r>
       <r>    8.0271    0.0000 </r>
       <r>    8.0288    0.0000 </r>
       <r>    8.0306    0.0000 </r>
       <r>    8.0315    0.0000 </r>
       <r>    8.0341    0.0000 </r>
       <r>    8.0836    0.0000 </r>
       <r>    8.2925    0.0000 </r>
       <r>    8.2939    0.0000 </r>
       <r>    8.2993    0.0000 </r>
       <r>    8.4923    0.0000 </r>
       <r>    8.5001    0.0000 </r>
       <r>    8.5013    0.0000 </r>
       <r>    8.5048    0.0000 </r>
       <r>    8.5104    0.0000 </r>
       <r>    8.5203    0.0000 </r>
       <r>    8.5379    0.0000 </r>
      </set>
      <set comment="kpoint 3">
       <r>   -5.9932    1.0000 </r>
       <r>   -5.4677    1.0000 </r>
       <r>   -5.4646    1.0000 </r>
       <r>   -5.4617    1.0000 </r>
       <r>   -4.9686    1.0000 </r>
       <r>   -4.9652    1.0000 </r>
       <r>   -4.9628    1.0000 </r>
       <r>   -4.5331    1.0000 </r>
       <r>   -4.4360    1.0000 </r>
       <r>   -4.4329    1.0000 </r>
       <r>   -4.4296    1.0000 </r>
       <r>   -4.0218    1.0000 </r>
       <r>   -4.0212    1.0000 </r>
       <r>   -4.0181    1.0000 </r>
       <r>   -4.0160    1.0000 </r>
       <r>   -4.0120    1.0000 </r>
       <r>   -4.0066    1.0000 </r>
       <r>   -3.8271    1.0000 </r>
       <r>   -3.8262    1.0000 </r>
       <r>   -3.8177    1.0000 </r>
       <r>   -3.3342    1.0000 </r>
       <r>   -3.3296    1.0000 </r>
       <r>   -3.3266    1.0000 </r>
       <r>   -2.9619    1.0000 </r>
       <r>   -2.9597    1.0000 </r>
       <r>   -2.9550    1.0000 </r>
       <r>   -2.7967    1.0000 </r>
       <r>   -2.7949    1.0000 </r>
       <r>   -2.7928    1.0000 </r>
       <r>   -2.7905    1.0000 </r>
       <r>   -2.7869    1.0000 </r>
       <r>   -2.7813    1.0000 </r>
       <r>   -1.2563    1.0000 </r>
       <r>   -1.2522    1.0000 </r>
       <r>   -1.2519    1.0000 </r>
       <r>   -1.2485    1.0000 </r>
       <r>   -1.2447    1.0000 </r>
       <r>   -1.2428    1.0000 </r>
       <r>   -1.1545    1.0000 </r>
       <r>   -1.1511    1.0000 </r>
       <r>   -1.1497    1.0000 </r>
       <r>   -1.0397    1.0000 </r>
       <r>   -1.0346    1.0000 </r>
       <r>   -1.0286    1.0000 </r>
       <r>   -0.9472    1.0000 </r>
       <r>   -0.9434    1.0000 </r>
       <r>   -0.9374    1.0000 </r>
       <r>   -0.2410    1.0000 </r>
       <r>   -0.1690    1.0000 </r>
       <r>   -0.1654    1.0000 </r>
       <r>   -0.1627    1.0000 </r>
       <r>   -0.1600    1.0000 </r>
       <r>   -0.1565    1.0000 </r>
       <r>   -0.1557    1.0000 </r>
       <r>    0.7138    1.0000 </r>
       <r>    0.7174    1.0000 </r>
       <r>    0.7186    1.0000 </r>
       <r>    1.0443    1.0000 </r>
       <r>    1.0447    1.0000 </r>
       <r>    1.0521    1.0000 </r>
       <r>    1.6534    1.0000 </r>
       <r>    1.6537    1.0000 </r>
       <r>    1.6561    1.0000 </r>
       <r>    1.6569    1.0000 </r>
       <r>    1.6581    1.0000 </r>
       <r>    1.6622    1.0000 </r>
       <r>    1.7128    1.0000 </r>
       <r>    1.7140    1.0000 </r>
       <r>    1.7189    1.0000 </r>
       <r>    2.2681    1.0000 </r>
       <r>    2.2687    1.0000 </r>
       <r>    2.2719    1.0000 </r>
       <r>    2.3631    1.0000 </r>
       <r>    2.3654    1.0000 </r>
       <r>    2.3707    1.0000 </r>
       <r>    2.3710    1.0000 </r>
       <r>    2.3721    1.0000 </r>
       <r>    2.3742    1.0000 </r>
       <r>    2.4207    1.0000 </r>
       <r>    2.4215    1.0000 </r>
       <r>    2.4272    1.0000 </r>
       <r>    2.7297    1.0000 </r>
       <r>    2.7328    1.0000 </r>
       <r>    2.7345    1.0000 </r>
       <r>    2.7352    1.0000 </r>
       <r>    2.7386    1.0000 </r>
       <r>    2.7397    1.0000 </r>
       <r>    2.9944    1.0000 </r>
       <r>    2.9990    1.0000 </r>
       <r>    3.0004    1.0000 </r>
       <r>    3.0100    1.0000 </r>
       <r>    3.0103    1.0000 </r>
       <r>    3.0172    1.0000 </r>
       <r>    3.3617    1.0000 </r>
       <r>    3.3645    1.0000 </r>
       <r>    3.3651    1.0000 </r>
       <r>    3.3834    1.0000 </r>
       <r>    3.3861    1.0000 </r>
       <r>    3.3927    1.0000 </r>
       <r>    3.4621    1.0000 </r>
       <r>    3.4670    1.0000 </r>
       <r>    3.4675    1.0000 </r>
       <r>    3.7396    1.0000 </r>
       <r>    3.7405    1.0000 </r>
       <r>    3.7412    1.0000 </r>
       <r>    3.7430    1.0000 </r>
       <r>    3.7446    1.0000 </r>
       <r>    3.7539    1.0000 </r>
       <r>    3.7756    1.0000 </r>
       <r>    3.7812    1.0000 </r>
       <r>    3.7821    1.0000 </r>
       <r>    4.0441    1.0000 </r>
       <r>    4.0913    1.0000 </r>
       <r>    4.0973    1.0000 </r>
       <r>    4.0991    1.0000 </r>
       <r>    4.3351    1.0000 </r>
       <r>    4.3406    1.0000 </r>
       <r>    4.3414    1.0000 </r>
       <r>    4.4064    1.0000 </r>
       <r>    4.4110    1.0000 </r>
       <r>    4.4140    1.0000 </r>
       <r>    4.5570    1.0000 </r>
       <r>    4.5666    1.0000 </r>
       <r>    4.8623    1.0000 </r>
       <r>    4.8695    1.0000 </r>
       <r>    4.8706    1.0000 </r>
       <r>    5.3421    1.0000 </r>
       <r>    5.3527    1.0000 </r>
       <r>    6.5585    0.0000 </r>
       <r>    6.5599    0.0000 </r>
       <r>    6.5670    0.0000 </r>
       <r>    7.0000    0.0000 </r>
       <r>    7.0048    0.0000 </r>
       <r>    7.0063    0.0000 </r>
       <r>    7.2323    0.0000 </r>
       <r>    7.4851    0.0000 </r>
       <r>    7.4907    0.0000 </r>
       <r>    7.4916    0.0000 </r>
       <r>    7.6155    0.0000 </r>
       <r>    7.6235    0.0000 </r>
       <r>    7.6237    0.0000 </r>
       <r>    7.7765    0.0000 </r>
       <r>    7.7797    0.0000 </r>
       <r>    7.7815    0.0000 </r>
       <r>    7.7962    0.0000 </r>
       <r>    7.8012    0.0000 </r>
       <r>    7.8042    0.0000 </r>
       <r>    8.0256    0.0000 </r>
       <r>    8.0305    0.0000 </r>
       <r>    8.0306    0.0000 </r>
       <r>    8.0348    0.0000 </r>
       <r>    8.0355    0.0000 </r>
       <r>    8.0363    0.0000 </r>
       <r>    8.0792    0.0000 </r>
       <r>    8.2916    0.0000 </r>
       <r>    8.2959    0.0000 </r>
       <r>    8.2968    0.0000 </r>
       <r>    8.4938    0.0000 </r>
       <r>    8.4996    0.0000 </r>
       <r>    8.5035    0.0000 </r>
       <r>    8.5058    0.0000 </r>
       <r>    8.5080    0.0000 </r>
       <r>    8.5171    0.0000 </r>
       <r>    8.5433    0.0000 </r>
      </set>
      <set comment="kpoint 4">
       <r>   -5.9932    1.0000 </r>
       <r>   -5.4677    1.0000 </r>
       <r>   -5.4646    1.0000 </r>
       <r>   -5.4617    1.0000 </r>
       <r>   -4.9687    1.0000 </r>
       <r>   -4.9652    1.0000 </r>
       <r>   -4.9628    1.0000 </r>
       <r>   -4.5333    1.0000 </r>
       <r>   -4.4357    1.0000 </r>
       <r>   -4.4329    1.0000 </r>
       <r>   -4.4296    1.0000 </r>
       <r>   -4.0201    1.0000 </r>
       <r>   -4.0197    1.0000 </r>
       <r>   -4.0193    1.0000 </r>
       <r>   -4.0169    1.0000 </r>
       <r>   -4.0129    1.0000 </r>
       <r>   -4.0070    1.0000 </r>
       <r>   -3.8271    1.0000 </r>
       <r>   -3.8268    1.0000 </r>
       <r>   -3.8171    1.0000 </r>
       <r>   -3.3341    1.0000 </r>
       <r>   -3.3296    1.0000 </r>
       <r>   -3.3266    1.0000 </r>
       <r>   -2.9624    1.0000 </r>
       <r>   -2.9619    1.0000 </r>
       <r>   -2.9521    1.0000 </r>
       <r>   -2.7949    1.0000 </r>
       <r>   -2.7943    1.0000 </r>
       <r>   -2.7933    1.0000 </r>
       <r>   -2.7916    1.0000 </r>
       <r>   -2.7875    1.0000 </r>
       <r>   -2.7818    1.0000 </r>
       <r>   -1.2551    1.0000 </r>
       <r>   -1.2547    1.0000 </r>
       <r>   -1.2504    1.0000 </r>
       <r>   -1.2499    1.0000 </r>
       <r>   -1.2442    1.0000 </r>
       <r>   -1.2419    1.0000 </r>
       <r>   -1.1562    1.0000 </r>
       <r>   -1.1545    1.0000 </r>
       <r>   -1.1451    1.0000 </r>
       <r>   -1.0403    1.0000 </r>
       <r>   -1.0346    1.0000 </r>
       <r>   -1.0278    1.0000 </r>
       <r>   -0.9472    1.0000 </r>
       <r>   -0.9434    1.0000 </r>
       <r>   -0.9372    1.0000 </r>
       <r>   -0.2411    1.0000 </r>
       <r>   -0.1697    1.0000 </r>
       <r>   -0.1672    1.0000 </r>
       <r>   -0.1624    1.0000 </r>
       <r>   -0.1608    1.0000 </r>
       <r>   -0.1546    1.0000 </r>
       <r>   -0.1545    1.0000 </r>
       <r>    0.7138    1.0000 </r>
       <r>    0.7173    1.0000 </r>
       <r>    0.7186    1.0000 </r>
       <r>    1.0443    1.0000 </r>
       <r>    1.0447    1.0000 </r>
       <r>    1.0521    1.0000 </r>
       <r>    1.6526    1.0000 </r>
       <r>    1.6536    1.0000 </r>
       <r>    1.6568    1.0000 </r>
       <r>    1.6574    1.0000 </r>
       <r>    1.6585    1.0000 </r>
       <r>    1.6620    1.0000 </r>
       <r>    1.7125    1.0000 </r>
       <r>    1.7137    1.0000 </r>
       <r>    1.7189    1.0000 </r>
       <r>    2.2677    1.0000 </r>
       <r>    2.2680    1.0000 </r>
       <r>    2.2729    1.0000 </r>
       <r>    2.3634    1.0000 </r>
       <r>    2.3647    1.0000 </r>
       <r>    2.3692    1.0000 </r>
       <r>    2.3722    1.0000 </r>
       <r>    2.3734    1.0000 </r>
       <r>    2.3749    1.0000 </r>
       <r>    2.4202    1.0000 </r>
       <r>    2.4210    1.0000 </r>
       <r>    2.4272    1.0000 </r>
       <r>    2.7296    1.0000 </r>
       <r>    2.7330    1.0000 </r>
       <r>    2.7342    1.0000 </r>
       <r>    2.7356    1.0000 </r>
       <r>    2.7387    1.0000 </r>
       <r>    2.7396    1.0000 </r>
       <r>    2.9954    1.0000 </r>
       <r>    2.9979    1.0000 </r>
       <r>    3.0006    1.0000 </r>
       <r>    3.0097    1.0000 </r>
       <r>    3.0104    1.0000 </r>
       <r>    3.0172    1.0000 </r>
       <r>    3.3616    1.0000 </r>
       <r>    3.3642    1.0000 </r>
       <r>    3.3652    1.0000 </r>
       <r>    3.3834    1.0000 </r>
       <r>    3.3859    1.0000 </r>
       <r>    3.3931    1.0000 </r>
       <r>    3.4623    1.0000 </r>
       <r>    3.4669    1.0000 </r>
       <r>    3.4676    1.0000 </r>
       <r>    3.7391    1.0000 </r>
       <r>    3.7399    1.0000 </r>
       <r>    3.7414    1.0000 </r>
       <r>    3.7438    1.0000 </r>
       <r>    3.7450    1.0000 </r>
       <r>    3.7538    1.0000 </r>
       <r>    3.7754    1.0000 </r>
       <r>    3.7812    1.0000 </r>
       <r>    3.7821    1.0000 </r>
       <r>    4.0441    1.0000 </r>
       <r>    4.0929    1.0000 </r>
       <r>    4.0957    1.0000 </r>
       <r>    4.0991    1.0000 </r>
       <r>    4.3355    1.0000 </r>
       <r>    4.3406    1.0000 </r>
       <r>    4.3415    1.0000 </r>
       <r>    4.4064    1.0000 </r>
       <r>    4.4110    1.0000 </r>
       <r>    4.4140    1.0000 </r>
       <r>    4.5568    1.0000 </r>
       <r>    4.5665    1.0000 </r>
       <r>    4.8622    1.0000 </r>
       <r>    4.8695    1.0000 </r>
       <r>    4.8706    1.0000 </r>
       <r>    5.3422    1.0000 </r>
       <r>    5.3527    1.0000 </r>
       <r>    6.5587    0.0000 </r>
       <r>    6.5596    0.0000 </r>
       <r>    6.5670    0.0000 </r>
       <r>    7.0000    0.0000 </r>
       <r>    7.0049    0.0000 </r>
       <r>    7.0063    0.0000 </r>
       <r>    7.2323    0.0000 </r>
       <r>    7.4850    0.0000 </r>
       <r>    7.4908    0.0000 </r>
       <r>    7.4916    0.0000 </r>
       <r>    7.6145    0.0000 </r>
       <r>    7.6236    0.0000 </r>
       <r>    7.6246    0.0000 </r>
       <r>    7.7761    0.0000 </r>
       <r>    7.7798    0.0000 </r>
       <r>    7.7818    0.0000 </r>
       <r>    7.7986    0.0000 </r>
       <r>    7.7992    0.0000 </r>
       <r>    7.8042    0.0000 </r>
       <r>    8.0251    0.0000 </r>
       <r>    8.0289    0.0000 </r>
       <r>    8.0311    0.0000 </r>
       <r>    8.0336    0.0000 </r>
       <r>    8.0365    0.0000 </r>
       <r>    8.0376    0.0000 </r>
       <r>    8.0793    0.0000 </r>
       <r>    8.2916    0.0000 </r>
       <r>    8.2958    0.0000 </r>
       <r>    8.2968    0.0000 </r>
       <r>    8.4941    0.0000 </r>
       <r>    8.4993    0.0000 </r>
       <r>    8.5035    0.0000 </r>
       <r>    8.5070    0.0000 </r>
       <r>    8.5088    0.0000 </r>
       <r>    8.5134    0.0000 </r>
       <r>    8.5416    0.0000 </r>
      </set>
     </set>
    </set>
   </array>
  </eigenvalues>
  <separator name="orbital magnetization" >
   <v name="MAGDIPOLOUT">      0.00000000      0.00000000      0.00000000</v>
  </separator>
  <dos>
   <i name="efermi">      5.59831610 </i>
   <total>
    <array>
     <dimension dim="1">gridpoints</dimension>
     <dimension dim="2">spin</dimension>
     <field>energy</field>
     <field>total</field>
     <field>integrated</field>
     <set>
      <set comment="spin 1">
       <r>    -6.7202     0.0000     0.0000 </r>
       <r>    -6.6669     0.0000     0.0000 </r>
       <r>    -6.6136     0.0000     0.0000 </r>
       <r>    -6.5603     0.0000     0.0000 </r>
       <r>    -6.5070     0.0000     0.0000 </r>
       <r>    -6.4537     0.0000     0.0000 </r>
       <r>    -6.4004     0.0000     0.0000 </r>
       <r>    -6.3470     0.0000     0.0000 </r>
       <r>    -6.2937     0.0000     0.0000 </r>
       <r>    -6.2404     0.0000     0.0000 </r>
       <r>    -6.1871     0.0000     0.0000 </r>
       <r>    -6.1338     0.0013     0.0001 </r>
       <r>    -6.0805     0.2526     0.0135 </r>
       <r>    -6.0272     6.0551     0.3364 </r>
       <r>    -5.9739    20.2378     1.4153 </r>
       <r>    -5.9205    10.2186     1.9601 </r>
       <r>    -5.8672     0.7422     1.9996 </r>
       <r>    -5.8139     0.0069     2.0000 </r>
       <r>    -5.7606     0.0000     2.0000 </r>
       <r>    -5.7073     0.0000     2.0000 </r>
       <r>    -5.6540     0.0000     2.0000 </r>
       <r>    -5.6007     0.0071     2.0004 </r>
       <r>    -5.5474     1.1090     2.0595 </r>
       <r>    -5.4940    21.8981     3.2270 </r>
       <r>    -5.4407    61.5241     6.5070 </r>
       <r>    -5.3874    26.3676     7.9127 </r>
       <r>    -5.3341     1.6250     7.9993 </r>
       <r>    -5.2808     0.0128     8.0000 </r>
       <r>    -5.2275     0.0000     8.0000 </r>
       <r>    -5.1742     0.0000     8.0000 </r>
       <r>    -5.1209     0.0007     8.0000 </r>
       <r>    -5.0675     0.2243     8.0120 </r>
       <r>    -5.0142     9.3041     8.5080 </r>
       <r>    -4.9609    52.5494    11.3096 </r>
       <r>    -4.9076    44.7085    13.6931 </r>
       <r>    -4.8543     5.6610    13.9949 </r>
       <r>    -4.8010     0.0955    14.0000 </r>
       <r>    -4.7477     0.0002    14.0000 </r>
       <r>    -4.6944     0.0001    14.0000 </r>
       <r>    -4.6410     0.0392    14.0021 </r>
       <r>    -4.5877     2.1482    14.1166 </r>
       <r>    -4.5344    15.8696    14.9627 </r>
       <r>    -4.4811    26.2445    16.3618 </r>
       <r>    -4.4278    55.3150    19.3108 </r>
       <r>    -4.3745    44.7004    21.6939 </r>
       <r>    -4.3212     5.6458    21.9949 </r>
       <r>    -4.2679     0.0953    22.0000 </r>
       <r>    -4.2145     0.0002    22.0000 </r>
       <r>    -4.1612     0.0055    22.0003 </r>
       <r>    -4.1079     1.1579    22.0620 </r>
       <r>    -4.0546    30.8966    23.7092 </r>
       <r>    -4.0013   117.5269    29.9749 </r>
       <r>    -3.9480    69.3412    33.6716 </r>
       <r>    -3.8947     8.7661    34.1390 </r>
       <r>    -3.8414    32.9234    35.8942 </r>
       <r>    -3.7880    59.7109    39.0775 </r>
       <r>    -3.7347    16.6424    39.9648 </r>
       <r>    -3.6814     0.6571    39.9998 </r>
       <r>    -3.6281     0.0033    40.0000 </r>
       <r>    -3.5748     0.0000    40.0000 </r>
       <r>    -3.5215     0.0000    40.0000 </r>
       <r>    -3.4682     0.0047    40.0003 </r>
       <r>    -3.4149     0.8352    40.0448 </r>
       <r>    -3.3615    18.8739    41.0510 </r>
       <r>    -3.3082    60.6883    44.2864 </r>
       <r>    -3.2549    29.9599    45.8837 </r>
       <r>    -3.2016     2.1613    45.9989 </r>
       <r>    -3.1483     0.0203    46.0000 </r>
       <r>    -3.0950     0.0074    46.0004 </r>
       <r>    -3.0417     1.1334    46.0608 </r>
       <r>    -2.9883    22.0549    47.2366 </r>
       <r>    -2.9350    61.4389    50.5121 </r>
       <r>    -2.8817    27.4811    51.9772 </r>
       <r>    -2.8284    33.2578    53.7502 </r>
       <r>    -2.7751   118.0545    60.0440 </r>
       <r>    -2.7218    68.2487    63.6826 </r>
       <r>    -2.6685     5.8864    63.9964 </r>
       <r>    -2.6152     0.0677    64.0000 </r>
       <r>    -2.5618     0.0001    64.0000 </r>
       <r>    -2.5085     0.0000    64.0000 </r>
       <r>    -2.4552     0.0000    64.0000 </r>
       <r>    -2.4019     0.0000    64.0000 </r>
       <r>    -2.3486     0.0000    64.0000 </r>
       <r>    -2.2953     0.0000    64.0000 </r>
       <r>    -2.2420     0.0000    64.0000 </r>
       <r>    -2.1887     0.0000    64.0000 </r>
       <r>    -2.1353     0.0000    64.0000 </r>
       <r>    -2.0820     0.0000    64.0000 </r>
       <r>    -2.0287     0.0000    64.0000 </r>
       <r>    -1.9754     0.0000    64.0000 </r>
       <r>    -1.9221     0.0000    64.0000 </r>
       <r>    -1.8688     0.0000    64.0000 </r>
       <r>    -1.8155     0.0000    64.0000 </r>
       <r>    -1.7622     0.0000    64.0000 </r>
       <r>    -1.7088     0.0000    64.0000 </r>
       <r>    -1.6555     0.0000    64.0000 </r>
       <r>    -1.6022     0.0000    64.0000 </r>
       <r>    -1.5489     0.0000    64.0000 </r>
       <r>    -1.4956     0.0000    64.0000 </r>
       <r>    -1.4423     0.0000    64.0000 </r>
       <r>    -1.3890     0.0101    64.0005 </r>
       <r>    -1.3357     1.7053    64.0915 </r>
       <r>    -1.2823    37.6132    66.0967 </r>
       <r>    -1.2290   122.2512    72.6142 </r>
       <r>    -1.1757    86.4216    77.2216 </r>
       <r>    -1.1224    66.6381    80.7743 </r>
       <r>    -1.0691    39.0945    82.8585 </r>
       <r>    -1.0158    63.5930    86.2488 </r>
       <r>    -0.9625    67.2187    89.8324 </r>
       <r>    -0.9092    61.5252    93.1125 </r>
       <r>    -0.8558    16.0128    93.9662 </r>
       <r>    -0.8025     0.6315    93.9998 </r>
       <r>    -0.7492     0.0032    94.0000 </r>
       <r>    -0.6959     0.0000    94.0000 </r>
       <r>    -0.6426     0.0000    94.0000 </r>
       <r>    -0.5893     0.0000    94.0000 </r>
       <r>    -0.5360     0.0000    94.0000 </r>
       <r>    -0.4827     0.0000    94.0000 </r>
       <r>    -0.4293     0.0000    94.0000 </r>
       <r>    -0.3760     0.0040    94.0002 </r>
       <r>    -0.3227     0.5194    94.0279 </r>
       <r>    -0.2694     8.8281    94.4986 </r>
       <r>    -0.2161    33.5284    96.2860 </r>
       <r>    -0.1628   100.0830   101.6217 </r>
       <r>    -0.1095   101.9310   107.0559 </r>
       <r>    -0.0562    17.2933   107.9779 </r>
       <r>    -0.0028     0.4134   107.9999 </r>
       <r>     0.0505     0.0012   108.0000 </r>
       <r>     0.1038     0.0000   108.0000 </r>
       <r>     0.1571     0.0000   108.0000 </r>
       <r>     0.2104     0.0000   108.0000 </r>
       <r>     0.2637     0.0000   108.0000 </r>
       <r>     0.3170     0.0000   108.0000 </r>
       <r>     0.3703     0.0000   108.0000 </r>
       <r>     0.4237     0.0000   108.0000 </r>
       <r>     0.4770     0.0000   108.0000 </r>
       <r>     0.5303     0.0000   108.0000 </r>
       <r>     0.5836     0.0137   108.0007 </r>
       <r>     0.6369     1.6599   108.0892 </r>
       <r>     0.6902    26.3933   109.4963 </r>
       <r>     0.7435    61.3401   112.7665 </r>
       <r>     0.7968    21.9960   113.9392 </r>
       <r>     0.8502     1.1332   113.9996 </r>
       <r>     0.9035     0.0104   114.0002 </r>
       <r>     0.9568     0.6199   114.0332 </r>
       <r>     1.0101    16.1521   114.8943 </r>
       <r>     1.0634    59.4206   118.0622 </r>
       <r>     1.1167    33.5307   119.8498 </r>
       <r>     1.1700     2.7870   119.9984 </r>
       <r>     1.2233     0.0304   120.0000 </r>
       <r>     1.2767     0.0000   120.0000 </r>
       <r>     1.3300     0.0000   120.0000 </r>
       <r>     1.3833     0.0000   120.0000 </r>
       <r>     1.4366     0.0000   120.0000 </r>
       <r>     1.4899     0.0003   120.0000 </r>
       <r>     1.5432     0.1525   120.0081 </r>
       <r>     1.5965     9.9019   120.5360 </r>
       <r>     1.6498    88.2556   125.2412 </r>
       <r>     1.7032   145.2909   132.9870 </r>
       <r>     1.7565    79.0610   137.2020 </r>
       <r>     1.8098    14.4995   137.9750 </r>
       <r>     1.8631     0.4674   137.9999 </r>
       <r>     1.9164     0.0019   138.0000 </r>
       <r>     1.9697     0.0000   138.0000 </r>
       <r>     2.0230     0.0000   138.0000 </r>
       <r>     2.0764     0.0000   138.0000 </r>
       <r>     2.1297     0.0056   138.0003 </r>
       <r>     2.1830     0.9443   138.0506 </r>
       <r>     2.2363    20.2075   139.1280 </r>
       <r>     2.2896    63.7112   142.5246 </r>
       <r>     2.3429    75.7259   146.5617 </r>
       <r>     2.3962   147.0786   154.4029 </r>
       <r>     2.4495   111.7015   160.3580 </r>
       <r>     2.5029    29.1389   161.9114 </r>
       <r>     2.5562     1.6482   161.9993 </r>
       <r>     2.6095     0.0602   162.0025 </r>
       <r>     2.6628     4.7299   162.2547 </r>
       <r>     2.7161    62.3227   165.5773 </r>
       <r>     2.7694   120.6106   172.0073 </r>
       <r>     2.8227    35.8570   173.9190 </r>
       <r>     2.8760     1.5471   174.0014 </r>
       <r>     2.9294     3.7266   174.2001 </r>
       <r>     2.9827    53.9933   177.0786 </r>
       <r>     3.0360   120.7725   183.5173 </r>
       <r>     3.0893    44.0813   185.8674 </r>
       <r>     3.1426     2.4678   185.9990 </r>
       <r>     3.1959     0.0190   186.0000 </r>
       <r>     3.2492     0.0924   186.0049 </r>
       <r>     3.3025     6.4285   186.3477 </r>
       <r>     3.3559    66.0409   189.8685 </r>
       <r>     3.4092   120.7497   196.3060 </r>
       <r>     3.4625    80.9263   200.6203 </r>
       <r>     3.5158    54.0551   203.5022 </r>
       <r>     3.5691     9.1212   203.9884 </r>
       <r>     3.6224     0.3141   204.0052 </r>
       <r>     3.6757     7.5518   204.4078 </r>
       <r>     3.7290    82.9639   208.8308 </r>
       <r>     3.7824   164.6111   217.6067 </r>
       <r>     3.8357    74.6064   221.5841 </r>
       <r>     3.8890     7.6673   221.9929 </r>
       <r>     3.9423     0.2425   222.0058 </r>
       <r>     3.9956     4.0145   222.2198 </r>
       <r>     4.0489    27.5891   223.6907 </r>
       <r>     4.1022    65.8422   227.2009 </r>
       <r>     4.1555    46.5515   229.6827 </r>
       <r>     4.2089     5.8614   229.9952 </r>
       <r>     4.2622     1.5862   230.0797 </r>
       <r>     4.3155    25.7652   231.4534 </r>
       <r>     4.3688    77.7478   235.5983 </r>
       <r>     4.4221    82.1648   239.9787 </r>
       <r>     4.4754    35.5009   241.8714 </r>
       <r>     4.5287    15.0870   242.6757 </r>
       <r>     4.5820    40.1703   244.8173 </r>
       <r>     4.6354    20.5980   245.9154 </r>
       <r>     4.6887     1.5708   245.9992 </r>
       <r>     4.7420     0.0343   246.0010 </r>
       <r>     4.7953     2.0068   246.1080 </r>
       <r>     4.8486    28.7624   247.6414 </r>
       <r>     4.9019    60.8205   250.8839 </r>
       <r>     4.9552    19.9801   251.9491 </r>
       <r>     5.0085     0.9495   251.9997 </r>
       <r>     5.0619     0.0058   252.0000 </r>
       <r>     5.1152     0.0000   252.0000 </r>
       <r>     5.1685     0.0000   252.0000 </r>
       <r>     5.2218     0.0133   252.0007 </r>
       <r>     5.2751     1.3874   252.0747 </r>
       <r>     5.3284    19.3299   253.1052 </r>
       <r>     5.3817    40.3670   255.2573 </r>
       <r>     5.4350    13.2859   255.9656 </r>
       <r>     5.4884     0.6416   255.9998 </r>
       <r>     5.5417     0.0041   256.0000 </r>
       <r>     5.5950     0.0000   256.0000 </r>
       <r>     5.6483     0.0000   256.0000 </r>
       <r>     5.7016     0.0000   256.0000 </r>
       <r>     5.7549     0.0000   256.0000 </r>
       <r>     5.8082     0.0000   256.0000 </r>
       <r>     5.8615     0.0000   256.0000 </r>
       <r>     5.9149     0.0000   256.0000 </r>
       <r>     5.9682     0.0000   256.0000 </r>
       <r>     6.0215     0.0000   256.0000 </r>
       <r>     6.0748     0.0000   256.0000 </r>
       <r>     6.1281     0.0000   256.0000 </r>
       <r>     6.1814     0.0000   256.0000 </r>
       <r>     6.2347     0.0000   256.0000 </r>
       <r>     6.2880     0.0000   256.0000 </r>
       <r>     6.3414     0.0000   256.0000 </r>
       <r>     6.3947     0.0001   256.0000 </r>
       <r>     6.4480     0.0650   256.0035 </r>
       <r>     6.5013     4.4606   256.2413 </r>
       <r>     6.5546    40.7581   258.4142 </r>
       <r>     6.6079    55.4480   261.3703 </r>
       <r>     6.6612    11.4817   261.9824 </r>
       <r>     6.7145     0.3291   261.9999 </r>
       <r>     6.7679     0.0012   262.0000 </r>
       <r>     6.8212     0.0000   262.0000 </r>
       <r>     6.8745     0.0142   262.0008 </r>
       <r>     6.9278     1.7261   262.0928 </r>
       <r>     6.9811    27.0380   263.5343 </r>
       <r>     7.0344    61.3525   266.8051 </r>
       <r>     7.0877    21.3456   267.9431 </r>
       <r>     7.1411     1.2259   268.0085 </r>
       <r>     7.1944     4.8314   268.2660 </r>
       <r>     7.2477    19.5209   269.3067 </r>
       <r>     7.3010    11.9291   269.9427 </r>
       <r>     7.3543     1.0692   269.9997 </r>
       <r>     7.4076     1.0966   270.0582 </r>
       <r>     7.4609    21.5414   271.2066 </r>
       <r>     7.5142    61.5127   274.4860 </r>
       <r>     7.5676    34.7587   276.3391 </r>
       <r>     7.6209    51.5534   279.0875 </r>
       <r>     7.6742    47.8094   281.6364 </r>
       <r>     7.7275    16.6921   282.5263 </r>
       <r>     7.7808    79.4609   286.7626 </r>
       <r>     7.8341   108.7751   292.5616 </r>
       <r>     7.8874    26.0015   293.9478 </r>
       <r>     7.9407     2.3083   294.0709 </r>
       <r>     7.9941    33.4644   295.8550 </r>
       <r>     8.0474   125.0483   302.5216 </r>
       <r>     8.1007    86.2384   307.1192 </r>
       <r>     8.1540    15.7029   307.9564 </r>
       <r>     8.2073     1.5627   308.0397 </r>
       <r>     8.2606    17.9486   308.9966 </r>
       <r>     8.3139    60.4824   312.2211 </r>
       <r>     8.3672    31.0501   313.8764 </r>
       <r>     8.4206     4.5629   314.1197 </r>
       <r>     8.4739    43.3350   316.4300 </r>
       <r>     8.5272   132.2216   323.4791 </r>
       <r>     8.5805    75.4593   327.5020 </r>
       <r>     8.6338     9.1140   327.9879 </r>
       <r>     8.6871     0.2262   328.0000 </r>
       <r>     8.7404     0.0009   328.0000 </r>
       <r>     8.7937     0.0000   328.0000 </r>
       <r>     8.8471     0.0000   328.0000 </r>
       <r>     8.9004     0.0000   328.0000 </r>
       <r>     8.9537     0.0000   328.0000 </r>
       <r>     9.0070     0.0000   328.0000 </r>
       <r>     9.0603     0.0000   328.0000 </r>
       <r>     9.1136     0.0000   328.0000 </r>
       <r>     9.1669     0.0000   328.0000 </r>
       <r>     9.2202     0.0000   328.0000 </r>
       <r>     9.2736     0.0000   328.0000 </r>
      </set>
     </set>
    </array>
   </total>
  </dos>
 </calculation>
 <structure name="finalpos" >
  <crystal>
   <varray name="basis" >
    <v>      10.93252578       0.00000000       0.00000000 </v>
    <v>       0.00000000      10.93252578       0.00000000 </v>
    <v>       0.00000000       0.00000000      10.93252578 </v>
   </varray>
   <i name="volume">   1306.65679237 </i>
   <varray name="rec_basis" >
    <v>       0.09147017       0.00000000       0.00000000 </v>
    <v>       0.00000000       0.09147017       0.00000000 </v>
    <v>       0.00000000       0.00000000       0.09147017 </v>
   </varray>
  </crystal>
  <varray name="positions" >
   <v>       0.44024411       0.43750000       0.43750000 </v>
   <v>       0.93750000       0.43750000       0.43750000 </v>
   <v>       0.43750000       0.93750000       0.43750000 </v>
   <v>       0.93750000       0.93750000       0.43750000 </v>
   <v>       0.43750000       0.43750000       0.93750000 </v>
   <v>       0.93750000       0.43750000       0.93750000 </v>
   <v>       0.43750000       0.93750000       0.93750000 </v>
   <v>       0.93750000       0.93750000       0.93750000 </v>
   <v>       0.43750000       0.18750000       0.18750000 </v>
   <v>       0.93750000       0.18750000       0.18750000 </v>
   <v>       0.43750000       0.68750000       0.18750000 </v>
   <v>       0.93750000       0.68750000       0.18750000 </v>
   <v>       0.43750000       0.18750000       0.68750000 </v>
   <v>       0.93750000       0.18750000       0.68750000 </v>
   <v>       0.43750000       0.68750000       0.68750000 </v>
   <v>       0.93750000       0.68750000       0.68750000 </v>
   <v>       0.18750000       0.43750000       0.18750000 </v>
   <v>       0.68750000       0.43750000       0.18750000 </v>
   <v>       0.18750000       0.93750000       0.18750000 </v>
   <v>       0.68750000       0.93750000       0.18750000 </v>
   <v>       0.18750000       0.43750000       0.68750000 </v>
   <v>       0.68750000       0.43750000       0.68750000 </v>
   <v>       0.18750000       0.93750000       0.68750000 </v>
   <v>       0.68750000       0.93750000       0.68750000 </v>
   <v>       0.18750000       0.18750000       0.43750000 </v>
   <v>       0.68750000       0.18750000       0.43750000 </v>
   <v>       0.18750000       0.68750000       0.43750000 </v>
   <v>       0.68750000       0.68750000       0.43750000 </v>
   <v>       0.18750000       0.18750000       0.93750000 </v>
   <v>       0.68750000       0.18750000       0.93750000 </v>
   <v>       0.18750000       0.68750000       0.93750000 </v>
   <v>       0.68750000       0.68750000       0.93750000 </v>
   <v>       0.06250000       0.06250000       0.06250000 </v>
   <v>       0.56250000       0.06250000       0.06250000 </v>
   <v>       0.06250000       0.56250000       0.06250000 </v>
   <v>       0.56250000       0.56250000       0.06250000 </v>
   <v>       0.06250000       0.06250000       0.56250000 </v>
   <v>       0.56250000       0.06250000       0.56250000 </v>
   <v>       0.06250000       0.56250000       0.56250000 </v>
   <v>       0.56250000       0.56250000       0.56250000 </v>
   <v>       0.06250000       0.31250000       0.31250000 </v>
   <v>       0.56250000       0.31250000       0.31250000 </v>
   <v>       0.06250000       0.81250000       0.31250000 </v>
   <v>       0.56250000       0.81250000       0.31250000 </v>
   <v>       0.06250000       0.31250000       0.81250000 </v>
   <v>       0.56250000       0.31250000       0.81250000 </v>
   <v>       0.06250000       0.81250000       0.81250000 </v>
   <v>       0.56250000       0.81250000       0.81250000 </v>
   <v>       0.31250000       0.06250000       0.31250000 </v>
   <v>       0.80975589       0.06250000       0.31250000 </v>
   <v>       0.31250000       0.56250000       0.31250000 </v>
   <v>       0.81250000       0.56250000       0.31250000 </v>
   <v>       0.31250000       0.06250000       0.81250000 </v>
   <v>       0.81250000       0.06250000       0.81250000 </v>
   <v>       0.31250000       0.56250000       0.81250000 </v>
   <v>       0.81250000       0.56250000       0.81250000 </v>
   <v>       0.31250000       0.31250000       0.06250000 </v>
   <v>       0.81250000       0.31250000       0.06250000 </v>
   <v>       0.31250000       0.81250000       0.06250000 </v>
   <v>       0.81250000       0.81250000       0.06250000 </v>
   <v>       0.31250000       0.31250000       0.56250000 </v>
   <v>       0.81250000       0.31250000       0.56250000 </v>
   <v>       0.31250000       0.81250000       0.56250000 </v>
   <v>       0.81250000       0.81250000       0.56250000 </v>
  </varray>
 </structure>
</modeling>
