
     Program PWSCF v.5.3.0 (svn rev. 11974) starts on  3Feb2016 at 13:31:57 

     This program is part of the open-source Quantum ESPRESSO suite
     for quantum simulation of materials; please cite
         "P. Giannozzi et al., J. Phys.:Condens. Matter 21 395502 (2009);
          URL http://www.quantum-espresso.org", 
     in publications or presentations arising from this work. More details at
     http://www.quantum-espresso.org/quote

     Parallel version (MPI), running on    16 processors
     R & G space division:  proc/nbgrp/npool/nimage =      16
     Reading input from Si.in

     Current dimensions of program PWSCF are:
     Max number of different atomic species (ntypx) = 10
     Max number of k-points (npk) =  40000
     Max angular momentum in pseudopotentials (lmaxx) =  3
               file Si.pbe-n-kjpaw_psl.0.1.UPF: wavefunction(s)  3S renormalized

     Subspace diagonalization in iterative solution of the eigenvalue problem:
     one sub-group per k-point group (pool) will be used
     scalapack distributed-memory algorithm (size of sub-group:  2*  2 procs)

 
     Parallelization info
     --------------------
     sticks:   dense  smooth     PW     G-vecs:    dense   smooth      PW
     Min         424     424    109                26332    26332    3467
     Max         425     425    110                26336    26336    3472
     Sum        6785    6785   1757               421349   421349   55515
 


     bravais-lattice index     =            0
     lattice parameter (alat)  =      20.6591  a.u.
     unit-cell volume          =    8817.2783 (a.u.)^3
     number of atoms/cell      =           64
     number of atomic types    =            1
     number of electrons       =       256.00
     number of Kohn-Sham states=          154
     kinetic-energy cutoff     =      50.0000  Ry
     charge density cutoff     =     200.0000  Ry
     convergence threshold     =      1.0E-09
     mixing beta               =       0.7000
     number of iterations used =            8  plain     mixing
     Exchange-correlation      =  SLA  PW   PBX  PBC ( 1  4  3  4 0 0)

     celldm(1)=  20.659106  celldm(2)=   0.000000  celldm(3)=   0.000000
     celldm(4)=   0.000000  celldm(5)=   0.000000  celldm(6)=   0.000000

     crystal axes: (cart. coord. in units of alat)
               a(1) = (   1.000000   0.000000   0.000000 )  
               a(2) = (   0.000000   1.000000   0.000000 )  
               a(3) = (   0.000000   0.000000   1.000000 )  

     reciprocal axes: (cart. coord. in units 2 pi/alat)
               b(1) = (  1.000000  0.000000  0.000000 )  
               b(2) = (  0.000000  1.000000  0.000000 )  
               b(3) = (  0.000000  0.000000  1.000000 )  


     PseudoPot. # 1 for Si read from file:
     /home/togo/espresso/pseudo/Si.pbe-n-kjpaw_psl.0.1.UPF
     MD5 check sum: b9d333a40e496bef61db012f150758bf
     Pseudo is Projector augmented-wave + core cor, Zval =  4.0
     Generated using "atomic" code by A. Dal Corso  v.5.0.2 svn rev. 9415
     Shape of augmentation charge: PSQ
     Using radial grid of 1141 points,  4 beta functions with: 
                l(1) =   0
                l(2) =   0
                l(3) =   1
                l(4) =   1
     Q(r) pseudized with 0 coefficients 


     atomic species   valence    mass     pseudopotential
        Si             4.00    28.08550     Si( 1.00)

     No symmetry found



   Cartesian axes

     site n.     atom                  positions (alat units)
         1           Si  tau(   1) = (   0.4404043   0.4375000   0.4375000  )
         2           Si  tau(   2) = (   0.9375000   0.4375000   0.4375000  )
         3           Si  tau(   3) = (   0.4375000   0.9375000   0.4375000  )
         4           Si  tau(   4) = (   0.9395536   0.9395536   0.4375000  )
         5           Si  tau(   5) = (   0.4375000   0.4375000   0.9375000  )
         6           Si  tau(   6) = (   0.9375000   0.4375000   0.9375000  )
         7           Si  tau(   7) = (   0.4375000   0.9375000   0.9375000  )
         8           Si  tau(   8) = (   0.9375000   0.9375000   0.9375000  )
         9           Si  tau(   9) = (   0.4375000   0.1875000   0.1875000  )
        10           Si  tau(  10) = (   0.9375000   0.1875000   0.1875000  )
        11           Si  tau(  11) = (   0.4375000   0.6875000   0.1875000  )
        12           Si  tau(  12) = (   0.9375000   0.6875000   0.1875000  )
        13           Si  tau(  13) = (   0.4375000   0.1875000   0.6875000  )
        14           Si  tau(  14) = (   0.9375000   0.1875000   0.6875000  )
        15           Si  tau(  15) = (   0.4375000   0.6875000   0.6875000  )
        16           Si  tau(  16) = (   0.9375000   0.6875000   0.6875000  )
        17           Si  tau(  17) = (   0.1875000   0.4375000   0.1875000  )
        18           Si  tau(  18) = (   0.6875000   0.4375000   0.1875000  )
        19           Si  tau(  19) = (   0.1875000   0.9375000   0.1875000  )
        20           Si  tau(  20) = (   0.6875000   0.9375000   0.1875000  )
        21           Si  tau(  21) = (   0.1875000   0.4375000   0.6875000  )
        22           Si  tau(  22) = (   0.6875000   0.4375000   0.6875000  )
        23           Si  tau(  23) = (   0.1875000   0.9375000   0.6875000  )
        24           Si  tau(  24) = (   0.6875000   0.9375000   0.6875000  )
        25           Si  tau(  25) = (   0.1875000   0.1875000   0.4375000  )
        26           Si  tau(  26) = (   0.6875000   0.1875000   0.4375000  )
        27           Si  tau(  27) = (   0.1875000   0.6875000   0.4375000  )
        28           Si  tau(  28) = (   0.6875000   0.6875000   0.4375000  )
        29           Si  tau(  29) = (   0.1875000   0.1875000   0.9375000  )
        30           Si  tau(  30) = (   0.6875000   0.1875000   0.9375000  )
        31           Si  tau(  31) = (   0.1875000   0.6875000   0.9375000  )
        32           Si  tau(  32) = (   0.6875000   0.6875000   0.9375000  )
        33           Si  tau(  33) = (   0.0625000   0.0625000   0.0625000  )
        34           Si  tau(  34) = (   0.5625000   0.0625000   0.0625000  )
        35           Si  tau(  35) = (   0.0625000   0.5625000   0.0625000  )
        36           Si  tau(  36) = (   0.5625000   0.5625000   0.0625000  )
        37           Si  tau(  37) = (   0.0625000   0.0625000   0.5625000  )
        38           Si  tau(  38) = (   0.5625000   0.0625000   0.5625000  )
        39           Si  tau(  39) = (   0.0625000   0.5625000   0.5625000  )
        40           Si  tau(  40) = (   0.5625000   0.5625000   0.5625000  )
        41           Si  tau(  41) = (   0.0625000   0.3125000   0.3125000  )
        42           Si  tau(  42) = (   0.5625000   0.3125000   0.3125000  )
        43           Si  tau(  43) = (   0.0625000   0.8125000   0.3125000  )
        44           Si  tau(  44) = (   0.5625000   0.8125000   0.3125000  )
        45           Si  tau(  45) = (   0.0625000   0.3125000   0.8125000  )
        46           Si  tau(  46) = (   0.5625000   0.3125000   0.8125000  )
        47           Si  tau(  47) = (   0.0625000   0.8125000   0.8125000  )
        48           Si  tau(  48) = (   0.5625000   0.8125000   0.8125000  )
        49           Si  tau(  49) = (   0.3125000   0.0625000   0.3125000  )
        50           Si  tau(  50) = (   0.8125000   0.0625000   0.3125000  )
        51           Si  tau(  51) = (   0.3125000   0.5625000   0.3125000  )
        52           Si  tau(  52) = (   0.8125000   0.5625000   0.3125000  )
        53           Si  tau(  53) = (   0.3125000   0.0625000   0.8125000  )
        54           Si  tau(  54) = (   0.8125000   0.0625000   0.8125000  )
        55           Si  tau(  55) = (   0.3125000   0.5625000   0.8125000  )
        56           Si  tau(  56) = (   0.8125000   0.5625000   0.8125000  )
        57           Si  tau(  57) = (   0.3125000   0.3125000   0.0625000  )
        58           Si  tau(  58) = (   0.8125000   0.3125000   0.0625000  )
        59           Si  tau(  59) = (   0.3125000   0.8125000   0.0625000  )
        60           Si  tau(  60) = (   0.8125000   0.8125000   0.0625000  )
        61           Si  tau(  61) = (   0.3125000   0.3125000   0.5625000  )
        62           Si  tau(  62) = (   0.8125000   0.3125000   0.5625000  )
        63           Si  tau(  63) = (   0.3125000   0.8125000   0.5625000  )
        64           Si  tau(  64) = (   0.8125000   0.8125000   0.5625000  )

     number of k points=     4  gaussian smearing, width (Ry)=  0.0100
                       cart. coord. in units 2pi/alat
        k(    1) = (   0.2500000   0.2500000   0.2500000), wk =   0.5000000
        k(    2) = (  -0.2500000  -0.2500000   0.2500000), wk =   0.5000000
        k(    3) = (  -0.2500000   0.2500000  -0.2500000), wk =   0.5000000
        k(    4) = (   0.2500000  -0.2500000  -0.2500000), wk =   0.5000000

     Dense  grid:   421349 G-vectors     FFT dimensions: (  96,  96,  96)

     Largest allocated arrays     est. size (Mb)     dimensions
        Kohn-Sham Wavefunctions         7.73 Mb     (    3289,  154)
        NL pseudopotentials            25.70 Mb     (    3289,  512)
        Each V/rho on FFT grid          0.84 Mb     (   55296)
        Each G-vector array             0.20 Mb     (   26336)
        G-vector shells                 0.01 Mb     (    1719)
     Largest temporary arrays     est. size (Mb)     dimensions
        Auxiliary wavefunctions        30.91 Mb     (    3289,  616)
        Each subspace H/S matrix        1.45 Mb     (     308,  308)
        Each <psi_i|beta_j> matrix      1.20 Mb     (     512,  154)
        Arrays for rho mixing           6.75 Mb     (   55296,    8)

     Check: negative/imaginary core charge=   -0.000001    0.000000

     Initial potential from superposition of free atoms

     starting charge  255.96421, renormalised to  256.00000
     Starting wfc are  256 randomized atomic wfcs
     Checking if some PAW data can be deallocated... 

     total cpu time spent up to now is       10.1 secs

     per-process dynamical memory:   114.8 Mb

     Self-consistent Calculation

     iteration #  1     ecut=    50.00 Ry     beta=0.70
     Davidson diagonalization with overlap
     ethr =  1.00E-02,  avg # of iterations =  3.0

     Threshold (ethr) on eigenvalues was too large:
     Diagonalizing with lowered threshold

     Davidson diagonalization with overlap
     ethr =  7.00E-04,  avg # of iterations =  1.0

     total cpu time spent up to now is       47.4 secs

     total energy              =   -2990.45694153 Ry
     Harris-Foulkes estimate   =   -2990.87681736 Ry
     estimated scf accuracy    <       1.77322511 Ry

     iteration #  2     ecut=    50.00 Ry     beta=0.70
     Davidson diagonalization with overlap
     ethr =  6.93E-04,  avg # of iterations =  1.0

     total cpu time spent up to now is       61.4 secs

     total energy              =   -2990.52360158 Ry
     Harris-Foulkes estimate   =   -2990.52747972 Ry
     estimated scf accuracy    <       0.07632110 Ry

     iteration #  3     ecut=    50.00 Ry     beta=0.70
     Davidson diagonalization with overlap
     ethr =  2.98E-05,  avg # of iterations = 10.8

     total cpu time spent up to now is       93.7 secs

     total energy              =   -2990.53057499 Ry
     Harris-Foulkes estimate   =   -2990.53137158 Ry
     estimated scf accuracy    <       0.00197109 Ry

     iteration #  4     ecut=    50.00 Ry     beta=0.70
     Davidson diagonalization with overlap
     ethr =  7.70E-07,  avg # of iterations =  8.2

     total cpu time spent up to now is      136.1 secs

     total energy              =   -2990.53036701 Ry
     Harris-Foulkes estimate   =   -2990.53274469 Ry
     estimated scf accuracy    <       0.00751350 Ry

     iteration #  5     ecut=    50.00 Ry     beta=0.70
     Davidson diagonalization with overlap
     ethr =  7.70E-07,  avg # of iterations =  5.0

     total cpu time spent up to now is      162.4 secs

     total energy              =   -2990.53148152 Ry
     Harris-Foulkes estimate   =   -2990.53160093 Ry
     estimated scf accuracy    <       0.00034275 Ry

     iteration #  6     ecut=    50.00 Ry     beta=0.70
     Davidson diagonalization with overlap
     ethr =  1.34E-07,  avg # of iterations =  2.0

     total cpu time spent up to now is      179.7 secs

     total energy              =   -2990.53154202 Ry
     Harris-Foulkes estimate   =   -2990.53155800 Ry
     estimated scf accuracy    <       0.00004567 Ry

     iteration #  7     ecut=    50.00 Ry     beta=0.70
     Davidson diagonalization with overlap
     ethr =  1.78E-08,  avg # of iterations =  2.8

     total cpu time spent up to now is      198.8 secs

     total energy              =   -2990.53155039 Ry
     Harris-Foulkes estimate   =   -2990.53155227 Ry
     estimated scf accuracy    <       0.00000444 Ry

     iteration #  8     ecut=    50.00 Ry     beta=0.70
     Davidson diagonalization with overlap
     ethr =  1.74E-09,  avg # of iterations =  3.0

     total cpu time spent up to now is      220.2 secs

     total energy              =   -2990.53155155 Ry
     Harris-Foulkes estimate   =   -2990.53155175 Ry
     estimated scf accuracy    <       0.00000046 Ry

     iteration #  9     ecut=    50.00 Ry     beta=0.70
     Davidson diagonalization with overlap
     ethr =  1.78E-10,  avg # of iterations =  3.0

     total cpu time spent up to now is      240.2 secs

     total energy              =   -2990.53155157 Ry
     Harris-Foulkes estimate   =   -2990.53155166 Ry
     estimated scf accuracy    <       0.00000017 Ry

     iteration # 10     ecut=    50.00 Ry     beta=0.70
     Davidson diagonalization with overlap
     ethr =  6.49E-11,  avg # of iterations =  3.0

     total cpu time spent up to now is      258.8 secs

     total energy              =   -2990.53155155 Ry
     Harris-Foulkes estimate   =   -2990.53155160 Ry
     estimated scf accuracy    <       0.00000006 Ry

     iteration # 11     ecut=    50.00 Ry     beta=0.70
     Davidson diagonalization with overlap
     ethr =  2.50E-11,  avg # of iterations =  2.0

     total cpu time spent up to now is      278.2 secs

     total energy              =   -2990.53155156 Ry
     Harris-Foulkes estimate   =   -2990.53155156 Ry
     estimated scf accuracy    <          1.4E-09 Ry

     iteration # 12     ecut=    50.00 Ry     beta=0.70
     Davidson diagonalization with overlap
     ethr =  5.62E-13,  avg # of iterations =  3.0

     total cpu time spent up to now is      305.0 secs

     total energy              =   -2990.53155156 Ry
     Harris-Foulkes estimate   =   -2990.53155156 Ry
     estimated scf accuracy    <          1.3E-09 Ry

     iteration # 13     ecut=    50.00 Ry     beta=0.70
     Davidson diagonalization with overlap
     ethr =  5.27E-13,  avg # of iterations =  2.0

     total cpu time spent up to now is      323.5 secs

     End of self-consistent calculation

          k = 0.2500 0.2500 0.2500 ( 52563 PWs)   bands (ev):

    -5.6250  -5.0983  -5.0970  -5.0941  -4.5985  -4.5972  -4.5944  -4.1618
    -4.0651  -4.0630  -4.0606  -3.6570  -3.6487  -3.6473  -3.6469  -3.6434
    -3.6425  -3.4616  -3.4541  -3.4515  -2.9597  -2.9562  -2.9529  -2.5953
    -2.5883  -2.5854  -2.4302  -2.4220  -2.4210  -2.4207  -2.4175  -2.4156
    -0.8853  -0.8804  -0.8786  -0.8778  -0.8740  -0.8699  -0.7847  -0.7785
    -0.7755  -0.6649  -0.6611  -0.6541  -0.5878  -0.5799  -0.5759   0.1219
     0.2048   0.2099   0.2104   0.2108   0.2160   0.2235   1.0796   1.0815
     1.0863   1.4143   1.4193   1.4216   2.0244   2.0277   2.0284   2.0306
     2.0318   2.0325   2.0861   2.0909   2.0920   2.6341   2.6390   2.6401
     2.7390   2.7427   2.7436   2.7459   2.7473   2.7498   2.7954   2.8001
     2.8027   3.1024   3.1046   3.1061   3.1086   3.1096   3.1128   3.3716
     3.3726   3.3751   3.3836   3.3882   3.3917   3.7295   3.7318   3.7348
     3.7471   3.7546   3.7571   3.8387   3.8396   3.8443   4.0996   4.1101
     4.1116   4.1134   4.1150   4.1161   4.1529   4.1536   4.1592   4.4082
     4.4715   4.4723   4.4777   4.7142   4.7152   4.7213   4.7691   4.7728
     4.7776   4.9340   4.9414   5.2435   5.2444   5.2529   5.7226   5.7311
     6.9338   6.9401   6.9409   7.3747   7.3759   7.3824   7.6006   7.8609
     7.8628   7.8679   7.9862   7.9883   7.9954   8.1494   8.1520   8.1541
     8.1674   8.1691   8.1737   8.3946   8.3973   8.3979   8.4015   8.4026
     8.4071   8.4508

          k =-0.2500-0.2500 0.2500 ( 52563 PWs)   bands (ev):

    -5.6251  -5.0985  -5.0958  -5.0943  -4.5992  -4.5964  -4.5948  -4.1644
    -4.0661  -4.0636  -4.0617  -3.6517  -3.6507  -3.6470  -3.6466  -3.6458
    -3.6371  -3.4583  -3.4555  -3.4482  -2.9642  -2.9608  -2.9574  -2.5930
    -2.5901  -2.5832  -2.4262  -2.4241  -2.4209  -2.4206  -2.4193  -2.4115
    -0.8869  -0.8826  -0.8782  -0.8774  -0.8763  -0.8716  -0.7863  -0.7823
    -0.7763  -0.6696  -0.6635  -0.6596  -0.5765  -0.5720  -0.5640   0.1309
     0.1982   0.2055   0.2106   0.2111   0.2116   0.2167   1.0845   1.0892
     1.0912   1.4151   1.4175   1.4222   2.0256   2.0262   2.0276   2.0300
     2.0307   2.0334   2.0843   2.0854   2.0911   2.6401   2.6412   2.6458
     2.7358   2.7390   2.7405   2.7429   2.7439   2.7472   2.7913   2.7934
     2.7971   3.1025   3.1056   3.1065   3.1090   3.1104   3.1126   3.3667
     3.3714   3.3722   3.3825   3.3838   3.3884   3.7348   3.7376   3.7382
     3.7560   3.7579   3.7675   3.8344   3.8394   3.8404   4.1124   4.1136
     4.1149   4.1170   4.1188   4.1284   4.1479   4.1536   4.1551   4.4179
     4.4644   4.4700   4.4703   4.7079   4.7138   4.7145   4.7797   4.7851
     4.7896   4.9309   4.9385   5.2346   5.2425   5.2436   5.7169   5.7252
     6.9316   6.9323   6.9387   7.3708   7.3777   7.3788   7.5969   7.8557
     7.8610   7.8629   7.9879   7.9951   7.9973   8.1489   8.1506   8.1527
     8.1644   8.1694   8.1712   8.3976   8.4025   8.4029   8.4069   8.4074
     8.4100   8.4453

          k =-0.2500 0.2500-0.2500 ( 52563 PWs)   bands (ev):

    -5.6251  -5.1006  -5.0960  -5.0923  -4.6009  -4.5963  -4.5930  -4.1636
    -4.0680  -4.0634  -4.0594  -3.6542  -3.6505  -3.6484  -3.6467  -3.6428
    -3.6381  -3.4592  -3.4562  -3.4479  -2.9642  -2.9593  -2.9552  -2.5944
    -2.5907  -2.5821  -2.4281  -2.4240  -2.4222  -2.4208  -2.4169  -2.4117
    -0.8867  -0.8824  -0.8809  -0.8780  -0.8728  -0.8705  -0.7868  -0.7825
    -0.7737  -0.6695  -0.6635  -0.6555  -0.5777  -0.5758  -0.5685   0.1282
     0.2025   0.2046   0.2065   0.2110   0.2166   0.2187   1.0828   1.0865
     1.0905   1.4140   1.4172   1.4238   2.0239   2.0266   2.0273   2.0296
     2.0315   2.0348   2.0853   2.0876   2.0910   2.6383   2.6402   2.6447
     2.7355   2.7383   2.7426   2.7445   2.7454   2.7474   2.7919   2.7949
     2.8003   3.1020   3.1039   3.1067   3.1092   3.1111   3.1128   3.3675
     3.3717   3.3742   3.3812   3.3848   3.3906   3.7325   3.7363   3.7382
     3.7542   3.7565   3.7631   3.8356   3.8400   3.8414   4.1094   4.1118
     4.1138   4.1158   4.1180   4.1246   4.1495   4.1539   4.1565   4.4147
     4.4652   4.4705   4.4739   4.7099   4.7142   4.7163   4.7782   4.7800
     4.7859   4.9302   4.9411   5.2375   5.2432   5.2460   5.7167   5.7289
     6.9310   6.9344   6.9406   7.3726   7.3769   7.3795   7.5979   7.8567
     7.8616   7.8647   7.9860   7.9940   7.9973   8.1478   8.1506   8.1546
     8.1642   8.1690   8.1735   8.3965   8.3986   8.4021   8.4046   8.4079
     8.4098   8.4470

          k = 0.2500-0.2500-0.2500 ( 52563 PWs)   bands (ev):

    -5.6250  -5.1004  -5.0967  -5.0922  -4.6004  -4.5971  -4.5925  -4.1626
    -4.0675  -4.0634  -4.0588  -3.6560  -3.6514  -3.6472  -3.6455  -3.6436
    -3.6401  -3.4616  -3.4534  -3.4504  -2.9620  -2.9580  -2.9530  -2.5966
    -2.5876  -2.5841  -2.4301  -2.4244  -2.4209  -2.4194  -2.4175  -2.4134
    -0.8860  -0.8845  -0.8781  -0.8755  -0.8741  -0.8703  -0.7876  -0.7783
    -0.7744  -0.6681  -0.6611  -0.6539  -0.5837  -0.5765  -0.5747   0.1245
     0.2029   0.2048   0.2103   0.2149   0.2171   0.2190   1.0803   1.0842
     1.0880   1.4127   1.4195   1.4228   2.0227   2.0268   2.0287   2.0310
     2.0315   2.0338   2.0864   2.0891   2.0917   2.6355   2.6401   2.6418
     2.7385   2.7406   2.7419   2.7439   2.7473   2.7494   2.7929   2.7987
     2.8024   3.1022   3.1039   3.1059   3.1084   3.1110   3.1133   3.3694
     3.3722   3.3756   3.3813   3.3882   3.3909   3.7308   3.7332   3.7372
     3.7497   3.7563   3.7583   3.8376   3.8397   3.8432   4.1034   4.1108
     4.1126   4.1147   4.1167   4.1190   4.1518   4.1535   4.1583   4.4106
     4.4690   4.4711   4.4765   4.7125   4.7147   4.7191   4.7724   4.7776
     4.7796   4.9315   4.9422   5.2412   5.2440   5.2498   5.7191   5.7313
     6.9318   6.9381   6.9413   7.3740   7.3766   7.3807   7.5994   7.8591
     7.8617   7.8671   7.9860   7.9897   7.9973   8.1477   8.1515   8.1553
     8.1652   8.1689   8.1746   8.3947   8.3969   8.4003   8.4028   8.4059
     8.4082   8.4493

     the Fermi energy is     6.3279 ev

!    total energy              =   -2990.53155156 Ry
     Harris-Foulkes estimate   =   -2990.53155156 Ry
     estimated scf accuracy    <          2.6E-10 Ry

     total all-electron energy =    -37124.667105 Ry

     The total energy is the sum of the following terms:

     one-electron contribution =     178.60671474 Ry
     hartree contribution      =      35.70134551 Ry
     xc contribution           =    -391.44199502 Ry
     ewald contribution        =    -534.00631125 Ry
     one-center paw contrib.   =   -2279.39130554 Ry
     smearing contrib. (-TS)   =       0.00000000 Ry

     convergence has been achieved in  13 iterations

     Forces acting on atoms (Ry/au):

     atom    1 type  1   force =    -0.01589514   -0.00000396    0.00000016
     atom    2 type  1   force =     0.00006140    0.00001678    0.00000010
     atom    3 type  1   force =     0.00007097    0.00003811    0.00000121
     atom    4 type  1   force =    -0.01127128   -0.01126476   -0.00060354
     atom    5 type  1   force =     0.00007199    0.00001768    0.00000021
     atom    6 type  1   force =    -0.00034228   -0.00000484    0.00000068
     atom    7 type  1   force =    -0.00048020   -0.00033574    0.00000007
     atom    8 type  1   force =     0.00006367    0.00003886   -0.00000024
     atom    9 type  1   force =    -0.00053506    0.00015216    0.00016076
     atom   10 type  1   force =    -0.00045041    0.00025365   -0.00023453
     atom   11 type  1   force =    -0.00052998    0.00014575   -0.00015725
     atom   12 type  1   force =    -0.00045046    0.00025598    0.00023058
     atom   13 type  1   force =    -0.00051722   -0.00008590    0.00004877
     atom   14 type  1   force =    -0.00029176    0.00007905    0.00009257
     atom   15 type  1   force =    -0.00052037   -0.00009020   -0.00005353
     atom   16 type  1   force =    -0.00029270    0.00007642   -0.00009431
     atom   17 type  1   force =     0.00026924   -0.00011600    0.00027410
     atom   18 type  1   force =     0.00027464   -0.00011989   -0.00028077
     atom   19 type  1   force =     0.00028667   -0.00046010   -0.00032086
     atom   20 type  1   force =     0.00028976   -0.00046123    0.00031654
     atom   21 type  1   force =     0.00025578    0.00011692   -0.00028819
     atom   22 type  1   force =     0.00026154    0.00012198    0.00029388
     atom   23 type  1   force =     0.00013181   -0.00028319    0.00015999
     atom   24 type  1   force =     0.00012825   -0.00028365   -0.00016135
     atom   25 type  1   force =     0.00056757    0.00056368    0.00005001
     atom   26 type  1   force =     0.00024255   -0.00023041   -0.00011575
     atom   27 type  1   force =     0.00023428   -0.00022297    0.00010804
     atom   28 type  1   force =     0.00055984    0.00055506   -0.00004210
     atom   29 type  1   force =     0.00001855   -0.00010069    0.00000395
     atom   30 type  1   force =     0.00012704    0.00016150   -0.00000951
     atom   31 type  1   force =     0.00012796    0.00016156    0.00000954
     atom   32 type  1   force =     0.00001928   -0.00010013   -0.00000430
     atom   33 type  1   force =    -0.00002684    0.00002575    0.00008470
     atom   34 type  1   force =     0.00029458    0.00022795    0.00006462
     atom   35 type  1   force =     0.00022644    0.00006506    0.00006239
     atom   36 type  1   force =    -0.00005328    0.00005736    0.00008277
     atom   37 type  1   force =     0.00479909    0.00479720    0.00397008
     atom   38 type  1   force =    -0.00004175    0.00002298    0.00011271
     atom   39 type  1   force =    -0.00002735    0.00005732    0.00010027
     atom   40 type  1   force =     0.00396505    0.00274197    0.00274349
     atom   41 type  1   force =    -0.00008154   -0.00007377   -0.00004766
     atom   42 type  1   force =     0.00393029   -0.00270295   -0.00270469
     atom   43 type  1   force =     0.00090451    0.00090798    0.00001720
     atom   44 type  1   force =    -0.00009527   -0.00010752   -0.00004035
     atom   45 type  1   force =     0.00018710   -0.00002661   -0.00002556
     atom   46 type  1   force =    -0.00009770   -0.00008647   -0.00003889
     atom   47 type  1   force =    -0.00010102   -0.00010669   -0.00003284
     atom   48 type  1   force =     0.00025570    0.00013185   -0.00002739
     atom   49 type  1   force =    -0.00009490   -0.00010668    0.00004241
     atom   50 type  1   force =     0.00096168    0.00085126    0.00007268
     atom   51 type  1   force =     0.00381334   -0.00248071    0.00248240
     atom   52 type  1   force =    -0.00008067   -0.00007275    0.00004685
     atom   53 type  1   force =     0.00025251    0.00013258    0.00002603
     atom   54 type  1   force =    -0.00009678   -0.00011094    0.00002917
     atom   55 type  1   force =    -0.00009523   -0.00008851    0.00003691
     atom   56 type  1   force =     0.00018802   -0.00002895    0.00002824
     atom   57 type  1   force =    -0.00005210    0.00005859   -0.00008111
     atom   58 type  1   force =     0.00022813    0.00006882   -0.00006550
     atom   59 type  1   force =     0.00029184    0.00022708   -0.00006686
     atom   60 type  1   force =    -0.00002780    0.00002423   -0.00008461
     atom   61 type  1   force =     0.00385130    0.00252143   -0.00252177
     atom   62 type  1   force =    -0.00002753    0.00005607   -0.00010116
     atom   63 type  1   force =    -0.00004038    0.00002213   -0.00011458
     atom   64 type  1   force =     0.00440462    0.00440344   -0.00343488

     Total force =     0.027288     Total SCF correction =     0.000031

     Writing output data file pwscf.save
 
     init_run     :      9.60s CPU      9.87s WALL (       1 calls)
     electrons    :    303.68s CPU    313.74s WALL (       1 calls)
     forces       :      4.49s CPU      4.63s WALL (       1 calls)

     Called by init_run:
     wfcinit      :      8.90s CPU      9.01s WALL (       1 calls)
     potinit      :      0.28s CPU      0.29s WALL (       1 calls)

     Called by electrons:
     c_bands      :    272.71s CPU    279.96s WALL (      14 calls)
     sum_band     :     26.39s CPU     26.92s WALL (      14 calls)
     v_of_rho     :      0.76s CPU      0.77s WALL (      14 calls)
     newd         :      1.34s CPU      1.40s WALL (      14 calls)
     PAW_pot      :      2.32s CPU      2.32s WALL (      14 calls)
     mix_rho      :      0.41s CPU      0.42s WALL (      14 calls)

     Called by c_bands:
     init_us_2    :      2.43s CPU      2.53s WALL (     120 calls)
     cegterg      :    266.33s CPU    273.11s WALL (      56 calls)

     Called by sum_band:
     sum_band:bec :      0.05s CPU      0.05s WALL (      56 calls)
     addusdens    :      1.42s CPU      1.60s WALL (      14 calls)

     Called by *egterg:
     h_psi        :    121.47s CPU    121.79s WALL (     259 calls)
     s_psi        :     31.00s CPU     31.03s WALL (     259 calls)
     g_psi        :      1.08s CPU      1.08s WALL (     199 calls)
     cdiaghg      :     40.74s CPU     40.77s WALL (     251 calls)

     Called by h_psi:
     add_vuspsi   :     30.51s CPU     30.54s WALL (     259 calls)

     General routines
     calbec       :     49.19s CPU     49.26s WALL (     331 calls)
     fft          :      0.60s CPU      0.61s WALL (     195 calls)
     fftw         :     59.53s CPU     59.97s WALL (   57234 calls)
     davcio       :      0.00s CPU      0.02s WALL (       4 calls)
 
     Parallel routines
     fft_scatter  :     18.87s CPU     18.33s WALL (   57429 calls)
 
     PWSCF        :  5m18.08s CPU     6m16.16s WALL

 
   This run was terminated on:  13:38:13   3Feb2016            

=------------------------------------------------------------------------------=
   JOB DONE.
=------------------------------------------------------------------------------=
