<?xml version="1.0" encoding="ISO-8859-1"?>
<modeling>
 <generator>
  <i name="program" type="string">vasp </i>
  <i name="version" type="string">5.4.1  </i>
  <i name="subversion" type="string">05Feb16 (build Mar 26 2016 11:58:25) complex                          parallel </i>
  <i name="platform" type="string">IFC91_ompi </i>
  <i name="date" type="string">2017 03 12 </i>
  <i name="time" type="string">12:13:56 </i>
 </generator>
 <incar>
  <i type="string" name="PREC">accurate</i>
  <i type="int" name="IALGO">    38</i>
  <i type="logical" name="ADDGRID"> T  </i>
  <i type="int" name="NELMIN">     5</i>
  <i type="int" name="IBRION">    -1</i>
  <i name="EDIFF">      0.00000001</i>
  <i name="ENCUT">    300.00000000</i>
  <i type="logical" name="LREAL"> F  </i>
  <i type="int" name="ISMEAR">     0</i>
  <i name="SIGMA">      0.05000000</i>
  <i type="logical" name="LWAVE"> F  </i>
  <i type="logical" name="LCHARG"> F  </i>
  <v type="int" name="KPOINT_BSE">    -1     0     0     0</v>
 </incar>
 <kpoints>
  <generation param="Monkhorst-Pack">
   <v type="int" name="divisions">       2        2        2 </v>
   <v name="usershift">      0.00000000       0.00000000       0.00000000 </v>
   <v name="genvec1">      0.50000000       0.00000000       0.00000000 </v>
   <v name="genvec2">      0.00000000       0.50000000       0.00000000 </v>
   <v name="genvec3">      0.00000000       0.00000000       0.50000000 </v>
   <v name="shift">      0.50000000       0.50000000       0.50000000 </v>
  </generation>
  <varray name="kpointlist" >
   <v>       0.25000000       0.25000000       0.25000000 </v>
   <v>      -0.25000000       0.25000000       0.25000000 </v>
   <v>       0.25000000      -0.25000000       0.25000000 </v>
   <v>      -0.25000000      -0.25000000       0.25000000 </v>
  </varray>
  <varray name="weights" >
   <v>       0.25000000 </v>
   <v>       0.25000000 </v>
   <v>       0.25000000 </v>
   <v>       0.25000000 </v>
  </varray>
 </kpoints>
 <parameters>
  <separator name="general" >
   <i type="string" name="SYSTEM">unknown system</i>
   <i type="logical" name="LCOMPAT"> F  </i>
  </separator>
  <separator name="electronic" >
   <i type="string" name="PREC">accura</i>
   <i name="ENMAX">    300.00000000</i>
   <i name="ENAUG">    322.06900000</i>
   <i name="EDIFF">      0.00000001</i>
   <i type="int" name="IALGO">    38</i>
   <i type="int" name="IWAVPR">    10</i>
   <i type="int" name="NBANDS">   164</i>
   <i name="NELECT">    256.00000000</i>
   <i type="int" name="TURBO">     0</i>
   <i type="int" name="IRESTART">     0</i>
   <i type="int" name="NREBOOT">     0</i>
   <i type="int" name="NMIN">     0</i>
   <i name="EREF">      0.00000000</i>
   <separator name="electronic smearing" >
    <i type="int" name="ISMEAR">     0</i>
    <i name="SIGMA">      0.05000000</i>
    <i name="KSPACING">      0.50000000</i>
    <i type="logical" name="KGAMMA"> T  </i>
   </separator>
   <separator name="electronic projectors" >
    <i type="logical" name="LREAL"> F  </i>
    <v name="ROPT">      0.00000000</v>
    <i type="int" name="LMAXPAW">  -100</i>
    <i type="int" name="LMAXMIX">     2</i>
    <i type="logical" name="NLSPLINE"> F  </i>
   </separator>
   <separator name="electronic startup" >
    <i type="int" name="ISTART">     0</i>
    <i type="int" name="ICHARG">     2</i>
    <i type="int" name="INIWAV">     1</i>
   </separator>
   <separator name="electronic spin" >
    <i type="int" name="ISPIN">     1</i>
    <i type="logical" name="LNONCOLLINEAR"> F  </i>
    <v name="MAGMOM">      1.00000000      1.00000000      1.00000000      1.00000000      1.00000000      1.00000000      1.00000000      1.00000000      1.00000000      1.00000000      1.00000000      1.00000000      1.00000000      1.00000000      1.00000000      1.00000000      1.00000000      1.00000000      1.00000000      1.00000000
      1.00000000      1.00000000      1.00000000      1.00000000      1.00000000      1.00000000      1.00000000      1.00000000      1.00000000      1.00000000      1.00000000      1.00000000      1.00000000      1.00000000      1.00000000      1.00000000      1.00000000      1.00000000      1.00000000      1.00000000
      1.00000000      1.00000000      1.00000000      1.00000000      1.00000000      1.00000000      1.00000000      1.00000000      1.00000000      1.00000000      1.00000000      1.00000000      1.00000000      1.00000000      1.00000000      1.00000000      1.00000000      1.00000000      1.00000000      1.00000000
      1.00000000      1.00000000      1.00000000      1.00000000</v>
    <i name="NUPDOWN">     -1.00000000</i>
    <i type="logical" name="LSORBIT"> F  </i>
    <v name="SAXIS">      0.00000000      0.00000000      1.00000000</v>
    <i type="logical" name="LSPIRAL"> F  </i>
    <v name="QSPIRAL">      0.00000000      0.00000000      0.00000000</v>
    <i type="logical" name="LZEROZ"> F  </i>
   </separator>
   <separator name="electronic exchange-correlation" >
    <i type="logical" name="LASPH"> F  </i>
    <i type="logical" name="LMETAGGA"> F  </i>
   </separator>
   <separator name="electronic convergence" >
    <i type="int" name="NELM">    60</i>
    <i type="int" name="NELMDL">    -5</i>
    <i type="int" name="NELMIN">     5</i>
    <i name="ENINI">    300.00000000</i>
    <separator name="electronic convergence detail" >
     <i type="logical" name="LDIAG"> T  </i>
     <i type="logical" name="LSUBROT"> F  </i>
     <i name="WEIMIN">      0.00000000</i>
     <i name="EBREAK">      0.00000000</i>
     <i name="DEPER">      0.30000000</i>
     <i type="int" name="NRMM">     4</i>
     <i name="TIME">      0.40000000</i>
    </separator>
   </separator>
   <separator name="electronic mixer" >
    <i name="AMIX">      0.40000000</i>
    <i name="BMIX">      1.00000000</i>
    <i name="AMIN">      0.10000000</i>
    <i name="AMIX_MAG">      1.60000000</i>
    <i name="BMIX_MAG">      1.00000000</i>
    <separator name="electronic mixer details" >
     <i type="int" name="IMIX">     4</i>
     <i type="logical" name="MIXFIRST"> F  </i>
     <i type="int" name="MAXMIX">   -45</i>
     <i name="WC">    100.00000000</i>
     <i type="int" name="INIMIX">     1</i>
     <i type="int" name="MIXPRE">     1</i>
     <i type="int" name="MREMOVE">     5</i>
    </separator>
   </separator>
   <separator name="electronic dipolcorrection" >
    <i type="logical" name="LDIPOL"> F  </i>
    <i type="logical" name="LMONO"> F  </i>
    <i type="int" name="IDIPOL">     0</i>
    <i name="EPSILON">      1.00000000</i>
    <v name="DIPOL">   -100.00000000   -100.00000000   -100.00000000</v>
    <i name="EFIELD">      0.00000000</i>
   </separator>
  </separator>
  <separator name="grids" >
   <i type="int" name="NGX">    64</i>
   <i type="int" name="NGY">    64</i>
   <i type="int" name="NGZ">    64</i>
   <i type="int" name="NGXF">   128</i>
   <i type="int" name="NGYF">   128</i>
   <i type="int" name="NGZF">   128</i>
   <i type="logical" name="ADDGRID"> T  </i>
  </separator>
  <separator name="ionic" >
   <i type="int" name="NSW">     0</i>
   <i type="int" name="IBRION">    -1</i>
   <i type="int" name="ISIF">     2</i>
   <i name="PSTRESS">      0.00000000</i>
   <i name="EDIFFG">      0.00000010</i>
   <i type="int" name="NFREE">     0</i>
   <i name="POTIM">      0.50000000</i>
   <i name="SMASS">     -3.00000000</i>
   <i name="SCALEE">      1.00000000</i>
  </separator>
  <separator name="ionic md" >
   <i name="TEBEG">      0.00010000</i>
   <i name="TEEND">      0.00010000</i>
   <i type="int" name="NBLOCK">     1</i>
   <i type="int" name="KBLOCK">     1</i>
   <i type="int" name="NPACO">   256</i>
   <i name="APACO">     16.00000000</i>
  </separator>
  <separator name="symmetry" >
   <i type="int" name="ISYM">     2</i>
   <i name="SYMPREC">      0.00001000</i>
  </separator>
  <separator name="dos" >
   <i type="logical" name="LORBIT"> F  </i>
   <v name="RWIGS">     -1.00000000</v>
   <i type="int" name="NEDOS">   301</i>
   <i name="EMIN">     10.00000000</i>
   <i name="EMAX">    -10.00000000</i>
   <i name="EFERMI">      0.00000000</i>
  </separator>
  <separator name="writing" >
   <i type="int" name="NWRITE">     2</i>
   <i type="logical" name="LWAVE"> F  </i>
   <i type="logical" name="LCHARG"> F  </i>
   <i type="logical" name="LPARD"> F  </i>
   <i type="logical" name="LVTOT"> F  </i>
   <i type="logical" name="LVHAR"> F  </i>
   <i type="logical" name="LELF"> F  </i>
   <i type="logical" name="LOPTICS"> F  </i>
   <v name="STM">      0.00000000      0.00000000      0.00000000      0.00000000      0.00000000      0.00000000      0.00000000</v>
  </separator>
  <separator name="performance" >
   <i type="int" name="NPAR">     4</i>
   <i type="int" name="NSIM">     4</i>
   <i type="int" name="NBLK">    -1</i>
   <i type="logical" name="LPLANE"> T  </i>
   <i type="logical" name="LSCALAPACK"> T  </i>
   <i type="logical" name="LSCAAWARE"> F  </i>
   <i type="logical" name="LSCALU"> F  </i>
   <i type="logical" name="LASYNC"> F  </i>
   <i type="logical" name="LORBITALREAL"> F  </i>
  </separator>
  <separator name="miscellaneous" >
   <i type="int" name="IDIOT">     3</i>
   <i type="logical" name="LMUSIC"> F  </i>
   <v name="POMASS">     28.08500000</v>
   <v name="DARWINR">      0.00000000</v>
   <v name="DARWINV">      1.00000000</v>
   <i type="logical" name="LCORR"> T  </i>
  </separator>
  <i type="logical" name="GGA_COMPAT"> T  </i>
  <i type="logical" name="LBERRY"> F  </i>
  <i type="int" name="ICORELEVEL">     0</i>
  <i type="logical" name="LDAU"> F  </i>
  <i type="int" name="I_CONSTRAINED_M">     0</i>
  <separator name="electronic exchange-correlation" >
   <i type="string" name="GGA">--</i>
   <i type="int" name="VOSKOWN">     0</i>
   <i type="logical" name="LHFCALC"> F  </i>
   <i type="string" name="PRECFOCK"></i>
   <i type="logical" name="LSYMGRAD"> F  </i>
   <i type="logical" name="LHFONE"> F  </i>
   <i type="logical" name="LRHFCALC"> F  </i>
   <i type="logical" name="LTHOMAS"> F  </i>
   <i type="logical" name="LMODELHF"> F  </i>
   <i name="ENCUT4O">     -1.00000000</i>
   <i type="int" name="EXXOEP">     0</i>
   <i type="int" name="FOURORBIT">     0</i>
   <i name="AEXX">      0.00000000</i>
   <i name="HFALPHA">      0.00000000</i>
   <i name="MCALPHA">      0.00000000</i>
   <i name="ALDAX">      1.00000000</i>
   <i name="AGGAX">      1.00000000</i>
   <i name="ALDAC">      1.00000000</i>
   <i name="AGGAC">      1.00000000</i>
   <i type="int" name="NKREDX">     1</i>
   <i type="int" name="NKREDY">     1</i>
   <i type="int" name="NKREDZ">     1</i>
   <i type="logical" name="SHIFTRED"> F  </i>
   <i type="logical" name="ODDONLY"> F  </i>
   <i type="logical" name="EVENONLY"> F  </i>
   <i type="int" name="LMAXFOCK">     0</i>
   <i type="int" name="NMAXFOCKAE">     0</i>
   <i type="logical" name="LFOCKAEDFT"> F  </i>
   <i name="HFSCREEN">      0.00000000</i>
   <i name="HFSCREENC">      0.00000000</i>
   <i type="int" name="NBANDSGWLOW">     0</i>
  </separator>
  <separator name="vdW DFT" >
   <i type="logical" name="LUSE_VDW"> F  </i>
   <i name="Zab_VDW">     -0.84910000</i>
   <i name="PARAM1">      0.12340000</i>
   <i name="PARAM2">      1.00000000</i>
   <i name="PARAM3">      0.00000000</i>
  </separator>
  <separator name="model GW" >
   <i type="int" name="MODEL_GW">     0</i>
   <i name="MODEL_EPS0">     12.24990743</i>
   <i name="MODEL_ALPHA">      1.00000000</i>
  </separator>
  <separator name="linear response parameters" >
   <i type="logical" name="LEPSILON"> F  </i>
   <i type="logical" name="LRPA"> F  </i>
   <i type="logical" name="LNABLA"> F  </i>
   <i type="logical" name="LVEL"> F  </i>
   <i type="int" name="KINTER">     0</i>
   <i name="CSHIFT">      0.10000000</i>
   <i name="OMEGAMAX">     -1.00000000</i>
   <i name="DEG_THRESHOLD">      0.00200000</i>
  </separator>
  <separator name="orbital magnetization" >
   <i type="logical" name="NUCIND"> F  </i>
   <v name="MAGPOS">      0.00000000      0.00000000      0.00000000</v>
   <i type="logical" name="LNICSALL"> T  </i>
   <i type="logical" name="ORBITALMAG"> F  </i>
   <i type="logical" name="LMAGBLOCH"> F  </i>
   <i type="logical" name="LCHIMAG"> F  </i>
   <i type="logical" name="LGAUGE"> T  </i>
   <i type="int" name="MAGATOM">     0</i>
   <v name="MAGDIPOL">      0.00000000      0.00000000      0.00000000</v>
   <v name="AVECCONST">      0.00000000      0.00000000      0.00000000</v>
  </separator>
  <separator name="response functions" >
   <i type="logical" name="LADDER"> F  </i>
   <i type="logical" name="LFXC"> F  </i>
   <i type="logical" name="LHARTREE"> T  </i>
   <i type="int" name="IBSE">     0</i>
   <v type="int" name="KPOINT">    -1     0     0     0</v>
   <i type="logical" name="LTCTE"> F  </i>
   <i type="logical" name="LTETE"> F  </i>
   <i type="logical" name="LTRIPLET"> F  </i>
   <i type="logical" name="LFXCEPS"> F  </i>
   <i type="logical" name="LFXHEG"> F  </i>
   <i type="int" name="NATURALO">     0</i>
   <i type="logical" name="L2ORDER"> F  </i>
   <i type="logical" name="LUSEW"> F  </i>
   <i name="ENCUTGW">     -2.00000000</i>
   <i name="ENCUTGWSOFT">     -2.00000000</i>
   <i name="ENCUTLF">     -1.00000000</i>
   <i type="int" name="LMAXMP2">    -1</i>
   <i name="SCISSOR">      0.00000000</i>
   <i type="int" name="NOMEGA">     0</i>
   <i type="int" name="NOMEGAR">     0</i>
   <i type="int" name="NBANDSGW">    -1</i>
   <i type="int" name="NBANDSO">    -1</i>
   <i type="int" name="NBANDSV">    -1</i>
   <i type="int" name="NELM">     1</i>
   <i type="int" name="NELMHF">     1</i>
   <i type="int" name="DIM">     3</i>
   <i type="int" name="ANTIRES">     0</i>
   <i name="OMEGAMAX">    -30.00000000</i>
   <i name="OMEGAMIN">    -30.00000000</i>
   <i name="OMEGATL">   -200.00000000</i>
   <i type="int" name="OMEGAGRID">     0</i>
   <i name="CSHIFT">     -0.10000000</i>
   <i type="logical" name="SELFENERGY"> F  </i>
   <i type="logical" name="LSPECTRAL"> F  </i>
   <i type="logical" name="LSPECTRALGW"> F  </i>
   <i type="logical" name="LSINGLES"> F  </i>
   <i type="logical" name="LFERMIGW"> F  </i>
   <i type="logical" name="ODDONLYGW"> F  </i>
   <i type="logical" name="EVENONLYGW"> F  </i>
   <i type="int" name="NKREDLFX">     1</i>
   <i type="int" name="NKREDLFY">     1</i>
   <i type="int" name="NKREDLFZ">     1</i>
   <i type="int" name="MAXMEM">  1800</i>
   <i type="int" name="TELESCOPE">     0</i>
   <i type="int" name="TAUPAR">     1</i>
   <i type="int" name="OMEGAPAR">    -1</i>
   <i name="LAMBDA">      1.00000000</i>
  </separator>
  <separator name="External order field" >
   <i name="OFIELD_KAPPA">      0.00000000</i>
   <v name="OFIELD_K">      0.00000000      0.00000000      0.00000000</v>
   <i name="OFIELD_Q6_NEAR">      0.00000000</i>
   <i name="OFIELD_Q6_FAR">      0.00000000</i>
   <i name="OFIELD_A">      0.00000000</i>
  </separator>
 </parameters>
 <atominfo>
  <atoms>      64 </atoms>
  <types>       1 </types>
  <array name="atoms" >
   <dimension dim="1">ion</dimension>
   <field type="string">element</field>
   <field type="int">atomtype</field>
   <set>
    <rc><c>Si</c><c>   1</c></rc>
    <rc><c>Si</c><c>   1</c></rc>
    <rc><c>Si</c><c>   1</c></rc>
    <rc><c>Si</c><c>   1</c></rc>
    <rc><c>Si</c><c>   1</c></rc>
    <rc><c>Si</c><c>   1</c></rc>
    <rc><c>Si</c><c>   1</c></rc>
    <rc><c>Si</c><c>   1</c></rc>
    <rc><c>Si</c><c>   1</c></rc>
    <rc><c>Si</c><c>   1</c></rc>
    <rc><c>Si</c><c>   1</c></rc>
    <rc><c>Si</c><c>   1</c></rc>
    <rc><c>Si</c><c>   1</c></rc>
    <rc><c>Si</c><c>   1</c></rc>
    <rc><c>Si</c><c>   1</c></rc>
    <rc><c>Si</c><c>   1</c></rc>
    <rc><c>Si</c><c>   1</c></rc>
    <rc><c>Si</c><c>   1</c></rc>
    <rc><c>Si</c><c>   1</c></rc>
    <rc><c>Si</c><c>   1</c></rc>
    <rc><c>Si</c><c>   1</c></rc>
    <rc><c>Si</c><c>   1</c></rc>
    <rc><c>Si</c><c>   1</c></rc>
    <rc><c>Si</c><c>   1</c></rc>
    <rc><c>Si</c><c>   1</c></rc>
    <rc><c>Si</c><c>   1</c></rc>
    <rc><c>Si</c><c>   1</c></rc>
    <rc><c>Si</c><c>   1</c></rc>
    <rc><c>Si</c><c>   1</c></rc>
    <rc><c>Si</c><c>   1</c></rc>
    <rc><c>Si</c><c>   1</c></rc>
    <rc><c>Si</c><c>   1</c></rc>
    <rc><c>Si</c><c>   1</c></rc>
    <rc><c>Si</c><c>   1</c></rc>
    <rc><c>Si</c><c>   1</c></rc>
    <rc><c>Si</c><c>   1</c></rc>
    <rc><c>Si</c><c>   1</c></rc>
    <rc><c>Si</c><c>   1</c></rc>
    <rc><c>Si</c><c>   1</c></rc>
    <rc><c>Si</c><c>   1</c></rc>
    <rc><c>Si</c><c>   1</c></rc>
    <rc><c>Si</c><c>   1</c></rc>
    <rc><c>Si</c><c>   1</c></rc>
    <rc><c>Si</c><c>   1</c></rc>
    <rc><c>Si</c><c>   1</c></rc>
    <rc><c>Si</c><c>   1</c></rc>
    <rc><c>Si</c><c>   1</c></rc>
    <rc><c>Si</c><c>   1</c></rc>
    <rc><c>Si</c><c>   1</c></rc>
    <rc><c>Si</c><c>   1</c></rc>
    <rc><c>Si</c><c>   1</c></rc>
    <rc><c>Si</c><c>   1</c></rc>
    <rc><c>Si</c><c>   1</c></rc>
    <rc><c>Si</c><c>   1</c></rc>
    <rc><c>Si</c><c>   1</c></rc>
    <rc><c>Si</c><c>   1</c></rc>
    <rc><c>Si</c><c>   1</c></rc>
    <rc><c>Si</c><c>   1</c></rc>
    <rc><c>Si</c><c>   1</c></rc>
    <rc><c>Si</c><c>   1</c></rc>
    <rc><c>Si</c><c>   1</c></rc>
    <rc><c>Si</c><c>   1</c></rc>
    <rc><c>Si</c><c>   1</c></rc>
    <rc><c>Si</c><c>   1</c></rc>
   </set>
  </array>
  <array name="atomtypes" >
   <dimension dim="1">type</dimension>
   <field type="int">atomspertype</field>
   <field type="string">element</field>
   <field>mass</field>
   <field>valence</field>
   <field type="string">pseudopotential</field>
   <set>
    <rc><c>  64</c><c>Si</c><c>     28.08500000</c><c>      4.00000000</c><c>  PAW_PBE Si 05Jan2001                  </c></rc>
   </set>
  </array>
 </atominfo>
 <structure name="initialpos" >
  <crystal>
   <varray name="basis" >
    <v>      10.93252578       0.00000000       0.00000000 </v>
    <v>       0.00000000      10.93252578       0.00000000 </v>
    <v>       0.00000000       0.00000000      10.93252578 </v>
   </varray>
   <i name="volume">   1306.65679237 </i>
   <varray name="rec_basis" >
    <v>       0.09147017       0.00000000       0.00000000 </v>
    <v>       0.00000000       0.09147017       0.00000000 </v>
    <v>       0.00000000       0.00000000       0.09147017 </v>
   </varray>
  </crystal>
  <varray name="positions" >
   <v>       0.44024411       0.43750000       0.43750000 </v>
   <v>       0.93750000       0.43750000       0.43750000 </v>
   <v>       0.43750000       0.93750000       0.43750000 </v>
   <v>       0.93750000       0.93750000       0.43750000 </v>
   <v>       0.43750000       0.43750000       0.93750000 </v>
   <v>       0.93750000       0.43750000       0.93750000 </v>
   <v>       0.43750000       0.93750000       0.93750000 </v>
   <v>       0.93750000       0.93750000       0.93750000 </v>
   <v>       0.43750000       0.18475589       0.18750000 </v>
   <v>       0.93750000       0.18750000       0.18750000 </v>
   <v>       0.43750000       0.68750000       0.18750000 </v>
   <v>       0.93750000       0.68750000       0.18750000 </v>
   <v>       0.43750000       0.18750000       0.68750000 </v>
   <v>       0.93750000       0.18750000       0.68750000 </v>
   <v>       0.43750000       0.68750000       0.68750000 </v>
   <v>       0.93750000       0.68750000       0.68750000 </v>
   <v>       0.18750000       0.43750000       0.18750000 </v>
   <v>       0.68750000       0.43750000       0.18750000 </v>
   <v>       0.18750000       0.93750000       0.18750000 </v>
   <v>       0.68750000       0.93750000       0.18750000 </v>
   <v>       0.18750000       0.43750000       0.68750000 </v>
   <v>       0.68750000       0.43750000       0.68750000 </v>
   <v>       0.18750000       0.93750000       0.68750000 </v>
   <v>       0.68750000       0.93750000       0.68750000 </v>
   <v>       0.18750000       0.18750000       0.43750000 </v>
   <v>       0.68750000       0.18750000       0.43750000 </v>
   <v>       0.18750000       0.68750000       0.43750000 </v>
   <v>       0.68750000       0.68750000       0.43750000 </v>
   <v>       0.18750000       0.18750000       0.93750000 </v>
   <v>       0.68750000       0.18750000       0.93750000 </v>
   <v>       0.18750000       0.68750000       0.93750000 </v>
   <v>       0.68750000       0.68750000       0.93750000 </v>
   <v>       0.06250000       0.06250000       0.06250000 </v>
   <v>       0.56250000       0.06250000       0.06250000 </v>
   <v>       0.06250000       0.56250000       0.06250000 </v>
   <v>       0.56250000       0.56250000       0.06250000 </v>
   <v>       0.06250000       0.06250000       0.56250000 </v>
   <v>       0.56250000       0.06250000       0.56250000 </v>
   <v>       0.06250000       0.56250000       0.56250000 </v>
   <v>       0.56250000       0.56250000       0.56250000 </v>
   <v>       0.06250000       0.31250000       0.31250000 </v>
   <v>       0.56250000       0.31250000       0.31250000 </v>
   <v>       0.06250000       0.81250000       0.31250000 </v>
   <v>       0.56250000       0.81250000       0.31250000 </v>
   <v>       0.06250000       0.31250000       0.81250000 </v>
   <v>       0.56250000       0.31250000       0.81250000 </v>
   <v>       0.06250000       0.81250000       0.81250000 </v>
   <v>       0.56250000       0.81250000       0.81250000 </v>
   <v>       0.31250000       0.06250000       0.31250000 </v>
   <v>       0.81250000       0.06250000       0.31250000 </v>
   <v>       0.31250000       0.56250000       0.31250000 </v>
   <v>       0.81250000       0.56250000       0.31250000 </v>
   <v>       0.31250000       0.06250000       0.81250000 </v>
   <v>       0.81250000       0.06250000       0.81250000 </v>
   <v>       0.31250000       0.56250000       0.81250000 </v>
   <v>       0.81250000       0.56250000       0.81250000 </v>
   <v>       0.31250000       0.31250000       0.06250000 </v>
   <v>       0.81250000       0.31250000       0.06250000 </v>
   <v>       0.31250000       0.81250000       0.06250000 </v>
   <v>       0.81250000       0.81250000       0.06250000 </v>
   <v>       0.31250000       0.31250000       0.56250000 </v>
   <v>       0.81250000       0.31250000       0.56250000 </v>
   <v>       0.31250000       0.81250000       0.56250000 </v>
   <v>       0.81250000       0.81250000       0.56250000 </v>
  </varray>
 </structure>
 <calculation>
  <scstep>
   <time name="dav">    4.23    4.24</time>
   <time name="total">    4.41    4.44</time>
   <energy>
    <i name="alphaZ">    105.52440745 </i>
    <i name="ewald">  -7265.47121034 </i>
    <i name="hartreedc">   -361.71243393 </i>
    <i name="XCdc">   -597.75713647 </i>
    <i name="pawpsdc">   5639.92317535 </i>
    <i name="pawaedc">  -4513.95313856 </i>
    <i name="eentropy">     -0.00109898 </i>
    <i name="bandstr">    856.87442952 </i>
    <i name="atom">   6596.14994790 </i>
    <i name="e_fr_energy">    459.57694195 </i>
    <i name="e_wo_entrp">    459.57804093 </i>
    <i name="e_0_energy">    459.57749144 </i>
   </energy>
  </scstep>
  <scstep>
   <time name="dav">    4.88    4.89</time>
   <time name="total">    4.89    4.90</time>
   <energy>
    <i name="e_fr_energy">   -300.08880082 </i>
    <i name="e_wo_entrp">   -300.08880082 </i>
    <i name="e_0_energy">   -300.08880082 </i>
   </energy>
  </scstep>
  <scstep>
   <time name="dav">    4.91    4.91</time>
   <time name="total">    4.91    4.92</time>
   <energy>
    <i name="e_fr_energy">   -350.93726528 </i>
    <i name="e_wo_entrp">   -350.93726528 </i>
    <i name="e_0_energy">   -350.93726528 </i>
   </energy>
  </scstep>
  <scstep>
   <time name="dav">    4.89    4.89</time>
   <time name="total">    4.89    4.90</time>
   <energy>
    <i name="e_fr_energy">   -352.26781459 </i>
    <i name="e_wo_entrp">   -352.26781459 </i>
    <i name="e_0_energy">   -352.26781459 </i>
   </energy>
  </scstep>
  <scstep>
   <time name="dav">    4.80    4.81</time>
   <time name="total">    5.03    5.05</time>
   <energy>
    <i name="e_fr_energy">   -352.31279329 </i>
    <i name="e_wo_entrp">   -352.31279329 </i>
    <i name="e_0_energy">   -352.31279329 </i>
   </energy>
  </scstep>
  <scstep>
   <time name="dav">    4.74    4.75</time>
   <time name="total">    5.15    5.17</time>
   <energy>
    <i name="e_fr_energy">   -348.58440041 </i>
    <i name="e_wo_entrp">   -348.58440041 </i>
    <i name="e_0_energy">   -348.58440041 </i>
   </energy>
  </scstep>
  <scstep>
   <time name="dav">    4.76    4.76</time>
   <time name="total">    5.16    5.19</time>
   <energy>
    <i name="e_fr_energy">   -346.87179674 </i>
    <i name="e_wo_entrp">   -346.87179674 </i>
    <i name="e_0_energy">   -346.87179674 </i>
   </energy>
  </scstep>
  <scstep>
   <time name="dav">    4.75    4.75</time>
   <time name="total">    5.16    5.17</time>
   <energy>
    <i name="e_fr_energy">   -346.89804384 </i>
    <i name="e_wo_entrp">   -346.89804384 </i>
    <i name="e_0_energy">   -346.89804384 </i>
   </energy>
  </scstep>
  <scstep>
   <time name="dav">    4.94    4.95</time>
   <time name="total">    5.35    5.40</time>
   <energy>
    <i name="e_fr_energy">   -346.90479638 </i>
    <i name="e_wo_entrp">   -346.90479638 </i>
    <i name="e_0_energy">   -346.90479638 </i>
   </energy>
  </scstep>
  <scstep>
   <time name="dav">    4.57    4.58</time>
   <time name="total">    4.98    5.00</time>
   <energy>
    <i name="e_fr_energy">   -346.90683898 </i>
    <i name="e_wo_entrp">   -346.90683898 </i>
    <i name="e_0_energy">   -346.90683898 </i>
   </energy>
  </scstep>
  <scstep>
   <time name="dav">    4.90    4.90</time>
   <time name="total">    5.31    5.32</time>
   <energy>
    <i name="e_fr_energy">   -346.90681649 </i>
    <i name="e_wo_entrp">   -346.90681649 </i>
    <i name="e_0_energy">   -346.90681649 </i>
   </energy>
  </scstep>
  <scstep>
   <time name="dav">    4.74    4.75</time>
   <time name="total">    5.15    5.18</time>
   <energy>
    <i name="e_fr_energy">   -346.90683078 </i>
    <i name="e_wo_entrp">   -346.90683078 </i>
    <i name="e_0_energy">   -346.90683078 </i>
   </energy>
  </scstep>
  <scstep>
   <time name="dav">    4.77    4.78</time>
   <time name="total">    5.18    5.19</time>
   <energy>
    <i name="e_fr_energy">   -346.90683152 </i>
    <i name="e_wo_entrp">   -346.90683152 </i>
    <i name="e_0_energy">   -346.90683152 </i>
   </energy>
  </scstep>
  <scstep>
   <time name="dav">    5.00    5.01</time>
   <time name="total">    5.41    5.43</time>
   <energy>
    <i name="e_fr_energy">   -346.90683214 </i>
    <i name="e_wo_entrp">   -346.90683214 </i>
    <i name="e_0_energy">   -346.90683214 </i>
   </energy>
  </scstep>
  <scstep>
   <time name="dav">    3.83    3.84</time>
   <time name="total">    4.24    4.26</time>
   <energy>
    <i name="e_fr_energy">   -346.90683192 </i>
    <i name="e_wo_entrp">   -346.90683192 </i>
    <i name="e_0_energy">   -346.90683192 </i>
   </energy>
  </scstep>
  <scstep>
   <time name="dav">    3.33    3.33</time>
   <time name="total">    3.74    3.75</time>
   <energy>
    <i name="e_fr_energy">   -346.90683198 </i>
    <i name="e_wo_entrp">   -346.90683198 </i>
    <i name="e_0_energy">   -346.90683198 </i>
   </energy>
  </scstep>
  <scstep>
   <time name="dav">    3.24    3.24</time>
   <time name="total">    3.64    3.67</time>
   <energy>
    <i name="e_fr_energy">   -346.90683196 </i>
    <i name="e_wo_entrp">   -346.90683196 </i>
    <i name="e_0_energy">   -346.90683196 </i>
   </energy>
  </scstep>
  <scstep>
   <time name="dav">    3.21    3.22</time>
   <time name="total">    3.62    3.64</time>
   <energy>
    <i name="e_fr_energy">   -346.90683197 </i>
    <i name="e_wo_entrp">   -346.90683197 </i>
    <i name="e_0_energy">   -346.90683197 </i>
   </energy>
  </scstep>
  <scstep>
   <time name="dav">    3.20    3.23</time>
   <time name="total">    3.38    3.41</time>
   <energy>
    <i name="alphaZ">    105.52440745 </i>
    <i name="ewald">  -7265.47121034 </i>
    <i name="hartreedc">   -485.14328592 </i>
    <i name="XCdc">   -577.61228685 </i>
    <i name="pawpsdc">  27883.40036086 </i>
    <i name="pawaedc"> -26764.11828474 </i>
    <i name="eentropy">      0.00000000 </i>
    <i name="bandstr">    160.36351965 </i>
    <i name="atom">   6596.14994790 </i>
    <i name="e_fr_energy">   -346.90683198 </i>
    <i name="e_wo_entrp">   -346.90683198 </i>
    <i name="e_0_energy">   -346.90683198 </i>
   </energy>
  </scstep>
  <structure>
   <crystal>
    <varray name="basis" >
     <v>      10.93252578       0.00000000       0.00000000 </v>
     <v>       0.00000000      10.93252578       0.00000000 </v>
     <v>       0.00000000       0.00000000      10.93252578 </v>
    </varray>
    <i name="volume">   1306.65679237 </i>
    <varray name="rec_basis" >
     <v>       0.09147017       0.00000000       0.00000000 </v>
     <v>       0.00000000       0.09147017       0.00000000 </v>
     <v>       0.00000000       0.00000000       0.09147017 </v>
    </varray>
   </crystal>
   <varray name="positions" >
    <v>       0.44024411       0.43750000       0.43750000 </v>
    <v>       0.93750000       0.43750000       0.43750000 </v>
    <v>       0.43750000       0.93750000       0.43750000 </v>
    <v>       0.93750000       0.93750000       0.43750000 </v>
    <v>       0.43750000       0.43750000       0.93750000 </v>
    <v>       0.93750000       0.43750000       0.93750000 </v>
    <v>       0.43750000       0.93750000       0.93750000 </v>
    <v>       0.93750000       0.93750000       0.93750000 </v>
    <v>       0.43750000       0.18475589       0.18750000 </v>
    <v>       0.93750000       0.18750000       0.18750000 </v>
    <v>       0.43750000       0.68750000       0.18750000 </v>
    <v>       0.93750000       0.68750000       0.18750000 </v>
    <v>       0.43750000       0.18750000       0.68750000 </v>
    <v>       0.93750000       0.18750000       0.68750000 </v>
    <v>       0.43750000       0.68750000       0.68750000 </v>
    <v>       0.93750000       0.68750000       0.68750000 </v>
    <v>       0.18750000       0.43750000       0.18750000 </v>
    <v>       0.68750000       0.43750000       0.18750000 </v>
    <v>       0.18750000       0.93750000       0.18750000 </v>
    <v>       0.68750000       0.93750000       0.18750000 </v>
    <v>       0.18750000       0.43750000       0.68750000 </v>
    <v>       0.68750000       0.43750000       0.68750000 </v>
    <v>       0.18750000       0.93750000       0.68750000 </v>
    <v>       0.68750000       0.93750000       0.68750000 </v>
    <v>       0.18750000       0.18750000       0.43750000 </v>
    <v>       0.68750000       0.18750000       0.43750000 </v>
    <v>       0.18750000       0.68750000       0.43750000 </v>
    <v>       0.68750000       0.68750000       0.43750000 </v>
    <v>       0.18750000       0.18750000       0.93750000 </v>
    <v>       0.68750000       0.18750000       0.93750000 </v>
    <v>       0.18750000       0.68750000       0.93750000 </v>
    <v>       0.68750000       0.68750000       0.93750000 </v>
    <v>       0.06250000       0.06250000       0.06250000 </v>
    <v>       0.56250000       0.06250000       0.06250000 </v>
    <v>       0.06250000       0.56250000       0.06250000 </v>
    <v>       0.56250000       0.56250000       0.06250000 </v>
    <v>       0.06250000       0.06250000       0.56250000 </v>
    <v>       0.56250000       0.06250000       0.56250000 </v>
    <v>       0.06250000       0.56250000       0.56250000 </v>
    <v>       0.56250000       0.56250000       0.56250000 </v>
    <v>       0.06250000       0.31250000       0.31250000 </v>
    <v>       0.56250000       0.31250000       0.31250000 </v>
    <v>       0.06250000       0.81250000       0.31250000 </v>
    <v>       0.56250000       0.81250000       0.31250000 </v>
    <v>       0.06250000       0.31250000       0.81250000 </v>
    <v>       0.56250000       0.31250000       0.81250000 </v>
    <v>       0.06250000       0.81250000       0.81250000 </v>
    <v>       0.56250000       0.81250000       0.81250000 </v>
    <v>       0.31250000       0.06250000       0.31250000 </v>
    <v>       0.81250000       0.06250000       0.31250000 </v>
    <v>       0.31250000       0.56250000       0.31250000 </v>
    <v>       0.81250000       0.56250000       0.31250000 </v>
    <v>       0.31250000       0.06250000       0.81250000 </v>
    <v>       0.81250000       0.06250000       0.81250000 </v>
    <v>       0.31250000       0.56250000       0.81250000 </v>
    <v>       0.81250000       0.56250000       0.81250000 </v>
    <v>       0.31250000       0.31250000       0.06250000 </v>
    <v>       0.81250000       0.31250000       0.06250000 </v>
    <v>       0.31250000       0.81250000       0.06250000 </v>
    <v>       0.81250000       0.81250000       0.06250000 </v>
    <v>       0.31250000       0.31250000       0.56250000 </v>
    <v>       0.81250000       0.31250000       0.56250000 </v>
    <v>       0.31250000       0.81250000       0.56250000 </v>
    <v>       0.81250000       0.81250000       0.56250000 </v>
   </varray>
  </structure>
  <varray name="forces" >
   <v>      -0.38989692      -0.00572551      -0.00550375 </v>
   <v>       0.00031741      -0.00101733       0.00186179 </v>
   <v>      -0.00145118      -0.00581240       0.00569164 </v>
   <v>      -0.00040802      -0.00101584      -0.00184223 </v>
   <v>       0.00399913      -0.00564938       0.00555834 </v>
   <v>       0.00005298      -0.00100992      -0.00185605 </v>
   <v>      -0.00878416      -0.00580386      -0.00567119 </v>
   <v>       0.00080391      -0.00102558       0.00184834 </v>
   <v>      -0.01288216       0.38979983       0.00275259 </v>
   <v>      -0.00002530      -0.00108785       0.00022533 </v>
   <v>      -0.01278243       0.00211564      -0.00266449 </v>
   <v>       0.00000325       0.00041180      -0.00024093 </v>
   <v>      -0.01277790      -0.00398294       0.00266571 </v>
   <v>       0.00000106       0.01130899       0.00022864 </v>
   <v>      -0.01287831      -0.00259030      -0.00277367 </v>
   <v>      -0.00002427      -0.00080346      -0.00022859 </v>
   <v>       0.01120656      -0.00831432       0.00824543 </v>
   <v>       0.00018859      -0.00841313      -0.00828133 </v>
   <v>      -0.00466249      -0.00602990       0.00088386 </v>
   <v>       0.00671486      -0.00603845      -0.00094216 </v>
   <v>       0.00378099       0.00164780      -0.00533794 </v>
   <v>       0.00765516       0.00174452       0.00545433 </v>
   <v>       0.00286482      -0.00079390       0.00209060 </v>
   <v>      -0.00082086      -0.00079151      -0.00207779 </v>
   <v>       0.00841409       0.01844660      -0.00543325 </v>
   <v>       0.00847300       0.00710662      -0.00007688 </v>
   <v>       0.00587403      -0.00552752       0.00243931 </v>
   <v>       0.00603741       0.00568787       0.00300466 </v>
   <v>      -0.00165579       0.01091341      -0.00289441 </v>
   <v>      -0.00174388       0.01471327       0.00253621 </v>
   <v>       0.00077974       0.00186249      -0.00000371 </v>
   <v>       0.00079382      -0.00182208       0.00045787 </v>
   <v>       0.00038744       0.00223308      -0.00045866 </v>
   <v>       0.07234917      -0.09509253      -0.06547174 </v>
   <v>       0.00122209       0.00002926      -0.00005511 </v>
   <v>      -0.00056205       0.00148918       0.00001262 </v>
   <v>       0.00131170      -0.00561142      -0.00003304 </v>
   <v>      -0.00026709       0.00240300       0.00029317 </v>
   <v>       0.00047860       0.00144555       0.00015698 </v>
   <v>       0.09646796       0.06552928       0.06553112 </v>
   <v>      -0.00116373       0.00052232      -0.00215828 </v>
   <v>       0.03490088      -0.15906412      -0.12716831 </v>
   <v>      -0.00002036      -0.00126070      -0.00134904 </v>
   <v>      -0.00237885      -0.00064806      -0.00211875 </v>
   <v>      -0.00005971      -0.00679100      -0.00127622 </v>
   <v>      -0.00272087       0.00021841      -0.00181038 </v>
   <v>      -0.00128206      -0.00022107      -0.00149889 </v>
   <v>       0.00550352      -0.00134685      -0.00131886 </v>
   <v>      -0.06754126      -0.09668233       0.06737280 </v>
   <v>      -0.00026383       0.00083296       0.00190492 </v>
   <v>       0.09217626      -0.06067764       0.06188095 </v>
   <v>      -0.00087398      -0.00151446       0.00154744 </v>
   <v>       0.00492998       0.00080476       0.00159930 </v>
   <v>      -0.00121362      -0.00694138       0.00142605 </v>
   <v>      -0.00208849      -0.00186763       0.00148957 </v>
   <v>      -0.00009300      -0.00016572       0.00139346 </v>
   <v>       0.05951992      -0.09185650       0.06004784 </v>
   <v>       0.00154621       0.00212816       0.00060634 </v>
   <v>       0.00704557       0.00095044       0.00022786 </v>
   <v>       0.00010948       0.00007832      -0.00002632 </v>
   <v>       0.09433466       0.06241298      -0.06006748 </v>
   <v>       0.00039959      -0.00523744      -0.00023090 </v>
   <v>      -0.00072764       0.00022625      -0.00060554 </v>
   <v>       0.00140638       0.00117123       0.00004080 </v>
  </varray>
  <varray name="stress" >
   <v>       0.00154752       0.00004830      -0.33508823 </v>
   <v>       0.00004833       0.00169547       0.33511631 </v>
   <v>      -0.33508821       0.33511631       0.02105817 </v>
  </varray>
  <energy>
   <i name="e_fr_energy">   -346.90683198 </i>
   <i name="e_wo_entrp">   -346.90683198 </i>
   <i name="e_0_energy">      0.00000000 </i>
  </energy>
  <time name="totalsc">   99.63  100.06</time>
  <eigenvalues>
   <array>
    <dimension dim="1">band</dimension>
    <dimension dim="2">kpoint</dimension>
    <dimension dim="3">spin</dimension>
    <field>eigene</field>
    <field>occ</field>
    <set>
     <set comment="spin 1">
      <set comment="kpoint 1">
       <r>   -5.9932    1.0000 </r>
       <r>   -5.4679    1.0000 </r>
       <r>   -5.4640    1.0000 </r>
       <r>   -5.4624    1.0000 </r>
       <r>   -4.9688    1.0000 </r>
       <r>   -4.9648    1.0000 </r>
       <r>   -4.9630    1.0000 </r>
       <r>   -4.5323    1.0000 </r>
       <r>   -4.4359    1.0000 </r>
       <r>   -4.4316    1.0000 </r>
       <r>   -4.4297    1.0000 </r>
       <r>   -4.0231    1.0000 </r>
       <r>   -4.0189    1.0000 </r>
       <r>   -4.0160    1.0000 </r>
       <r>   -4.0152    1.0000 </r>
       <r>   -4.0143    1.0000 </r>
       <r>   -4.0112    1.0000 </r>
       <r>   -3.8283    1.0000 </r>
       <r>   -3.8244    1.0000 </r>
       <r>   -3.8203    1.0000 </r>
       <r>   -3.3333    1.0000 </r>
       <r>   -3.3274    1.0000 </r>
       <r>   -3.3245    1.0000 </r>
       <r>   -2.9627    1.0000 </r>
       <r>   -2.9591    1.0000 </r>
       <r>   -2.9558    1.0000 </r>
       <r>   -2.7980    1.0000 </r>
       <r>   -2.7936    1.0000 </r>
       <r>   -2.7906    1.0000 </r>
       <r>   -2.7902    1.0000 </r>
       <r>   -2.7887    1.0000 </r>
       <r>   -2.7840    1.0000 </r>
       <r>   -1.2581    1.0000 </r>
       <r>   -1.2522    1.0000 </r>
       <r>   -1.2486    1.0000 </r>
       <r>   -1.2481    1.0000 </r>
       <r>   -1.2459    1.0000 </r>
       <r>   -1.2405    1.0000 </r>
       <r>   -1.1545    1.0000 </r>
       <r>   -1.1512    1.0000 </r>
       <r>   -1.1475    1.0000 </r>
       <r>   -1.0374    1.0000 </r>
       <r>   -1.0327    1.0000 </r>
       <r>   -1.0278    1.0000 </r>
       <r>   -0.9515    1.0000 </r>
       <r>   -0.9458    1.0000 </r>
       <r>   -0.9427    1.0000 </r>
       <r>   -0.2446    1.0000 </r>
       <r>   -0.1688    1.0000 </r>
       <r>   -0.1645    1.0000 </r>
       <r>   -0.1598    1.0000 </r>
       <r>   -0.1587    1.0000 </r>
       <r>   -0.1563    1.0000 </r>
       <r>   -0.1524    1.0000 </r>
       <r>    0.7091    1.0000 </r>
       <r>    0.7148    1.0000 </r>
       <r>    0.7189    1.0000 </r>
       <r>    1.0428    1.0000 </r>
       <r>    1.0474    1.0000 </r>
       <r>    1.0512    1.0000 </r>
       <r>    1.6523    1.0000 </r>
       <r>    1.6547    1.0000 </r>
       <r>    1.6566    1.0000 </r>
       <r>    1.6579    1.0000 </r>
       <r>    1.6584    1.0000 </r>
       <r>    1.6616    1.0000 </r>
       <r>    1.7133    1.0000 </r>
       <r>    1.7163    1.0000 </r>
       <r>    1.7188    1.0000 </r>
       <r>    2.2656    1.0000 </r>
       <r>    2.2676    1.0000 </r>
       <r>    2.2700    1.0000 </r>
       <r>    2.3653    1.0000 </r>
       <r>    2.3669    1.0000 </r>
       <r>    2.3698    1.0000 </r>
       <r>    2.3724    1.0000 </r>
       <r>    2.3743    1.0000 </r>
       <r>    2.3760    1.0000 </r>
       <r>    2.4212    1.0000 </r>
       <r>    2.4253    1.0000 </r>
       <r>    2.4289    1.0000 </r>
       <r>    2.7290    1.0000 </r>
       <r>    2.7327    1.0000 </r>
       <r>    2.7354    1.0000 </r>
       <r>    2.7357    1.0000 </r>
       <r>    2.7380    1.0000 </r>
       <r>    2.7390    1.0000 </r>
       <r>    2.9967    1.0000 </r>
       <r>    2.9998    1.0000 </r>
       <r>    3.0014    1.0000 </r>
       <r>    3.0095    1.0000 </r>
       <r>    3.0135    1.0000 </r>
       <r>    3.0175    1.0000 </r>
       <r>    3.3593    1.0000 </r>
       <r>    3.3617    1.0000 </r>
       <r>    3.3645    1.0000 </r>
       <r>    3.3813    1.0000 </r>
       <r>    3.3847    1.0000 </r>
       <r>    3.3876    1.0000 </r>
       <r>    3.4629    1.0000 </r>
       <r>    3.4672    1.0000 </r>
       <r>    3.4697    1.0000 </r>
       <r>    3.7338    1.0000 </r>
       <r>    3.7397    1.0000 </r>
       <r>    3.7411    1.0000 </r>
       <r>    3.7420    1.0000 </r>
       <r>    3.7436    1.0000 </r>
       <r>    3.7472    1.0000 </r>
       <r>    3.7766    1.0000 </r>
       <r>    3.7813    1.0000 </r>
       <r>    3.7843    1.0000 </r>
       <r>    4.0404    1.0000 </r>
       <r>    4.0946    1.0000 </r>
       <r>    4.0986    1.0000 </r>
       <r>    4.1009    1.0000 </r>
       <r>    4.3369    1.0000 </r>
       <r>    4.3413    1.0000 </r>
       <r>    4.3447    1.0000 </r>
       <r>    4.4015    1.0000 </r>
       <r>    4.4060    1.0000 </r>
       <r>    4.4103    1.0000 </r>
       <r>    4.5587    1.0000 </r>
       <r>    4.5670    1.0000 </r>
       <r>    4.8648    1.0000 </r>
       <r>    4.8705    1.0000 </r>
       <r>    4.8750    1.0000 </r>
       <r>    5.3451    1.0000 </r>
       <r>    5.3544    1.0000 </r>
       <r>    6.5597    0.0000 </r>
       <r>    6.5638    0.0000 </r>
       <r>    6.5666    0.0000 </r>
       <r>    6.9992    0.0000 </r>
       <r>    7.0047    0.0000 </r>
       <r>    7.0094    0.0000 </r>
       <r>    7.2337    0.0000 </r>
       <r>    7.4862    0.0000 </r>
       <r>    7.4907    0.0000 </r>
       <r>    7.4952    0.0000 </r>
       <r>    7.6155    0.0000 </r>
       <r>    7.6197    0.0000 </r>
       <r>    7.6233    0.0000 </r>
       <r>    7.7762    0.0000 </r>
       <r>    7.7797    0.0000 </r>
       <r>    7.7835    0.0000 </r>
       <r>    7.7975    0.0000 </r>
       <r>    7.8022    0.0000 </r>
       <r>    7.8041    0.0000 </r>
       <r>    8.0234    0.0000 </r>
       <r>    8.0284    0.0000 </r>
       <r>    8.0307    0.0000 </r>
       <r>    8.0314    0.0000 </r>
       <r>    8.0332    0.0000 </r>
       <r>    8.0357    0.0000 </r>
       <r>    8.0817    0.0000 </r>
       <r>    8.2917    0.0000 </r>
       <r>    8.2951    0.0000 </r>
       <r>    8.2981    0.0000 </r>
       <r>    8.4919    0.0000 </r>
       <r>    8.5012    0.0000 </r>
       <r>    8.5025    0.0000 </r>
       <r>    8.5038    0.0000 </r>
       <r>    8.5094    0.0000 </r>
       <r>    8.5190    0.0000 </r>
       <r>    8.5470    0.0000 </r>
      </set>
      <set comment="kpoint 2">
       <r>   -5.9931    1.0000 </r>
       <r>   -5.4676    1.0000 </r>
       <r>   -5.4651    1.0000 </r>
       <r>   -5.4620    1.0000 </r>
       <r>   -4.9682    1.0000 </r>
       <r>   -4.9656    1.0000 </r>
       <r>   -4.9626    1.0000 </r>
       <r>   -4.5312    1.0000 </r>
       <r>   -4.4351    1.0000 </r>
       <r>   -4.4324    1.0000 </r>
       <r>   -4.4290    1.0000 </r>
       <r>   -4.0257    1.0000 </r>
       <r>   -4.0202    1.0000 </r>
       <r>   -4.0159    1.0000 </r>
       <r>   -4.0150    1.0000 </r>
       <r>   -4.0137    1.0000 </r>
       <r>   -4.0109    1.0000 </r>
       <r>   -3.8295    1.0000 </r>
       <r>   -3.8238    1.0000 </r>
       <r>   -3.8217    1.0000 </r>
       <r>   -3.3304    1.0000 </r>
       <r>   -3.3274    1.0000 </r>
       <r>   -3.3221    1.0000 </r>
       <r>   -2.9650    1.0000 </r>
       <r>   -2.9577    1.0000 </r>
       <r>   -2.9560    1.0000 </r>
       <r>   -2.7986    1.0000 </r>
       <r>   -2.7951    1.0000 </r>
       <r>   -2.7903    1.0000 </r>
       <r>   -2.7891    1.0000 </r>
       <r>   -2.7876    1.0000 </r>
       <r>   -2.7861    1.0000 </r>
       <r>   -1.2560    1.0000 </r>
       <r>   -1.2518    1.0000 </r>
       <r>   -1.2482    1.0000 </r>
       <r>   -1.2466    1.0000 </r>
       <r>   -1.2454    1.0000 </r>
       <r>   -1.2427    1.0000 </r>
       <r>   -1.1560    1.0000 </r>
       <r>   -1.1484    1.0000 </r>
       <r>   -1.1464    1.0000 </r>
       <r>   -1.0343    1.0000 </r>
       <r>   -1.0320    1.0000 </r>
       <r>   -1.0266    1.0000 </r>
       <r>   -0.9579    1.0000 </r>
       <r>   -0.9488    1.0000 </r>
       <r>   -0.9455    1.0000 </r>
       <r>   -0.2481    1.0000 </r>
       <r>   -0.1671    1.0000 </r>
       <r>   -0.1614    1.0000 </r>
       <r>   -0.1600    1.0000 </r>
       <r>   -0.1574    1.0000 </r>
       <r>   -0.1552    1.0000 </r>
       <r>   -0.1511    1.0000 </r>
       <r>    0.7053    1.0000 </r>
       <r>    0.7140    1.0000 </r>
       <r>    0.7166    1.0000 </r>
       <r>    1.0437    1.0000 </r>
       <r>    1.0476    1.0000 </r>
       <r>    1.0501    1.0000 </r>
       <r>    1.6527    1.0000 </r>
       <r>    1.6554    1.0000 </r>
       <r>    1.6565    1.0000 </r>
       <r>    1.6575    1.0000 </r>
       <r>    1.6595    1.0000 </r>
       <r>    1.6606    1.0000 </r>
       <r>    1.7151    1.0000 </r>
       <r>    1.7169    1.0000 </r>
       <r>    1.7197    1.0000 </r>
       <r>    2.2632    1.0000 </r>
       <r>    2.2666    1.0000 </r>
       <r>    2.2678    1.0000 </r>
       <r>    2.3665    1.0000 </r>
       <r>    2.3696    1.0000 </r>
       <r>    2.3712    1.0000 </r>
       <r>    2.3728    1.0000 </r>
       <r>    2.3752    1.0000 </r>
       <r>    2.3771    1.0000 </r>
       <r>    2.4245    1.0000 </r>
       <r>    2.4268    1.0000 </r>
       <r>    2.4305    1.0000 </r>
       <r>    2.7298    1.0000 </r>
       <r>    2.7331    1.0000 </r>
       <r>    2.7345    1.0000 </r>
       <r>    2.7354    1.0000 </r>
       <r>    2.7359    1.0000 </r>
       <r>    2.7400    1.0000 </r>
       <r>    2.9986    1.0000 </r>
       <r>    3.0007    1.0000 </r>
       <r>    3.0017    1.0000 </r>
       <r>    3.0118    1.0000 </r>
       <r>    3.0151    1.0000 </r>
       <r>    3.0173    1.0000 </r>
       <r>    3.3571    1.0000 </r>
       <r>    3.3599    1.0000 </r>
       <r>    3.3630    1.0000 </r>
       <r>    3.3772    1.0000 </r>
       <r>    3.3826    1.0000 </r>
       <r>    3.3844    1.0000 </r>
       <r>    3.4658    1.0000 </r>
       <r>    3.4672    1.0000 </r>
       <r>    3.4702    1.0000 </r>
       <r>    3.7304    1.0000 </r>
       <r>    3.7354    1.0000 </r>
       <r>    3.7396    1.0000 </r>
       <r>    3.7415    1.0000 </r>
       <r>    3.7419    1.0000 </r>
       <r>    3.7432    1.0000 </r>
       <r>    3.7799    1.0000 </r>
       <r>    3.7813    1.0000 </r>
       <r>    3.7847    1.0000 </r>
       <r>    4.0368    1.0000 </r>
       <r>    4.0979    1.0000 </r>
       <r>    4.1007    1.0000 </r>
       <r>    4.1017    1.0000 </r>
       <r>    4.3407    1.0000 </r>
       <r>    4.3422    1.0000 </r>
       <r>    4.3459    1.0000 </r>
       <r>    4.3949    1.0000 </r>
       <r>    4.4039    1.0000 </r>
       <r>    4.4053    1.0000 </r>
       <r>    4.5617    1.0000 </r>
       <r>    4.5664    1.0000 </r>
       <r>    4.8696    1.0000 </r>
       <r>    4.8719    1.0000 </r>
       <r>    4.8767    1.0000 </r>
       <r>    5.3493    1.0000 </r>
       <r>    5.3547    1.0000 </r>
       <r>    6.5618    0.0000 </r>
       <r>    6.5656    0.0000 </r>
       <r>    6.5675    0.0000 </r>
       <r>    7.0012    0.0000 </r>
       <r>    7.0061    0.0000 </r>
       <r>    7.0083    0.0000 </r>
       <r>    7.2352    0.0000 </r>
       <r>    7.4887    0.0000 </r>
       <r>    7.4932    0.0000 </r>
       <r>    7.4949    0.0000 </r>
       <r>    7.6151    0.0000 </r>
       <r>    7.6168    0.0000 </r>
       <r>    7.6226    0.0000 </r>
       <r>    7.7776    0.0000 </r>
       <r>    7.7794    0.0000 </r>
       <r>    7.7839    0.0000 </r>
       <r>    7.7992    0.0000 </r>
       <r>    7.8026    0.0000 </r>
       <r>    7.8039    0.0000 </r>
       <r>    8.0224    0.0000 </r>
       <r>    8.0251    0.0000 </r>
       <r>    8.0284    0.0000 </r>
       <r>    8.0310    0.0000 </r>
       <r>    8.0317    0.0000 </r>
       <r>    8.0339    0.0000 </r>
       <r>    8.0838    0.0000 </r>
       <r>    8.2927    0.0000 </r>
       <r>    8.2959    0.0000 </r>
       <r>    8.2970    0.0000 </r>
       <r>    8.4929    0.0000 </r>
       <r>    8.4978    0.0000 </r>
       <r>    8.5026    0.0000 </r>
       <r>    8.5039    0.0000 </r>
       <r>    8.5097    0.0000 </r>
       <r>    8.5211    0.0000 </r>
       <r>    8.5390    0.0000 </r>
      </set>
      <set comment="kpoint 3">
       <r>   -5.9932    1.0000 </r>
       <r>   -5.4676    1.0000 </r>
       <r>   -5.4644    1.0000 </r>
       <r>   -5.4619    1.0000 </r>
       <r>   -4.9684    1.0000 </r>
       <r>   -4.9653    1.0000 </r>
       <r>   -4.9631    1.0000 </r>
       <r>   -4.5332    1.0000 </r>
       <r>   -4.4358    1.0000 </r>
       <r>   -4.4323    1.0000 </r>
       <r>   -4.4301    1.0000 </r>
       <r>   -4.0214    1.0000 </r>
       <r>   -4.0192    1.0000 </r>
       <r>   -4.0184    1.0000 </r>
       <r>   -4.0164    1.0000 </r>
       <r>   -4.0117    1.0000 </r>
       <r>   -4.0089    1.0000 </r>
       <r>   -3.8270    1.0000 </r>
       <r>   -3.8249    1.0000 </r>
       <r>   -3.8191    1.0000 </r>
       <r>   -3.3331    1.0000 </r>
       <r>   -3.3298    1.0000 </r>
       <r>   -3.3275    1.0000 </r>
       <r>   -2.9623    1.0000 </r>
       <r>   -2.9607    1.0000 </r>
       <r>   -2.9537    1.0000 </r>
       <r>   -2.7957    1.0000 </r>
       <r>   -2.7944    1.0000 </r>
       <r>   -2.7929    1.0000 </r>
       <r>   -2.7906    1.0000 </r>
       <r>   -2.7877    1.0000 </r>
       <r>   -2.7820    1.0000 </r>
       <r>   -1.2564    1.0000 </r>
       <r>   -1.2539    1.0000 </r>
       <r>   -1.2508    1.0000 </r>
       <r>   -1.2487    1.0000 </r>
       <r>   -1.2463    1.0000 </r>
       <r>   -1.2402    1.0000 </r>
       <r>   -1.1558    1.0000 </r>
       <r>   -1.1536    1.0000 </r>
       <r>   -1.1460    1.0000 </r>
       <r>   -1.0384    1.0000 </r>
       <r>   -1.0334    1.0000 </r>
       <r>   -1.0310    1.0000 </r>
       <r>   -0.9475    1.0000 </r>
       <r>   -0.9430    1.0000 </r>
       <r>   -0.9373    1.0000 </r>
       <r>   -0.2410    1.0000 </r>
       <r>   -0.1689    1.0000 </r>
       <r>   -0.1660    1.0000 </r>
       <r>   -0.1627    1.0000 </r>
       <r>   -0.1609    1.0000 </r>
       <r>   -0.1581    1.0000 </r>
       <r>   -0.1527    1.0000 </r>
       <r>    0.7120    1.0000 </r>
       <r>    0.7166    1.0000 </r>
       <r>    0.7211    1.0000 </r>
       <r>    1.0442    1.0000 </r>
       <r>    1.0483    1.0000 </r>
       <r>    1.0488    1.0000 </r>
       <r>    1.6517    1.0000 </r>
       <r>    1.6555    1.0000 </r>
       <r>    1.6566    1.0000 </r>
       <r>    1.6576    1.0000 </r>
       <r>    1.6588    1.0000 </r>
       <r>    1.6607    1.0000 </r>
       <r>    1.7129    1.0000 </r>
       <r>    1.7144    1.0000 </r>
       <r>    1.7178    1.0000 </r>
       <r>    2.2676    1.0000 </r>
       <r>    2.2689    1.0000 </r>
       <r>    2.2723    1.0000 </r>
       <r>    2.3635    1.0000 </r>
       <r>    2.3670    1.0000 </r>
       <r>    2.3686    1.0000 </r>
       <r>    2.3716    1.0000 </r>
       <r>    2.3729    1.0000 </r>
       <r>    2.3739    1.0000 </r>
       <r>    2.4198    1.0000 </r>
       <r>    2.4218    1.0000 </r>
       <r>    2.4271    1.0000 </r>
       <r>    2.7313    1.0000 </r>
       <r>    2.7331    1.0000 </r>
       <r>    2.7338    1.0000 </r>
       <r>    2.7346    1.0000 </r>
       <r>    2.7380    1.0000 </r>
       <r>    2.7398    1.0000 </r>
       <r>    2.9966    1.0000 </r>
       <r>    2.9974    1.0000 </r>
       <r>    3.0001    1.0000 </r>
       <r>    3.0097    1.0000 </r>
       <r>    3.0136    1.0000 </r>
       <r>    3.0139    1.0000 </r>
       <r>    3.3612    1.0000 </r>
       <r>    3.3637    1.0000 </r>
       <r>    3.3662    1.0000 </r>
       <r>    3.3842    1.0000 </r>
       <r>    3.3864    1.0000 </r>
       <r>    3.3918    1.0000 </r>
       <r>    3.4628    1.0000 </r>
       <r>    3.4655    1.0000 </r>
       <r>    3.4682    1.0000 </r>
       <r>    3.7395    1.0000 </r>
       <r>    3.7402    1.0000 </r>
       <r>    3.7410    1.0000 </r>
       <r>    3.7431    1.0000 </r>
       <r>    3.7469    1.0000 </r>
       <r>    3.7521    1.0000 </r>
       <r>    3.7761    1.0000 </r>
       <r>    3.7795    1.0000 </r>
       <r>    3.7831    1.0000 </r>
       <r>    4.0441    1.0000 </r>
       <r>    4.0940    1.0000 </r>
       <r>    4.0950    1.0000 </r>
       <r>    4.0983    1.0000 </r>
       <r>    4.3362    1.0000 </r>
       <r>    4.3393    1.0000 </r>
       <r>    4.3419    1.0000 </r>
       <r>    4.4060    1.0000 </r>
       <r>    4.4108    1.0000 </r>
       <r>    4.4145    1.0000 </r>
       <r>    4.5593    1.0000 </r>
       <r>    4.5641    1.0000 </r>
       <r>    4.8631    1.0000 </r>
       <r>    4.8679    1.0000 </r>
       <r>    4.8713    1.0000 </r>
       <r>    5.3449    1.0000 </r>
       <r>    5.3501    1.0000 </r>
       <r>    6.5591    0.0000 </r>
       <r>    6.5611    0.0000 </r>
       <r>    6.5651    0.0000 </r>
       <r>    6.9975    0.0000 </r>
       <r>    7.0056    0.0000 </r>
       <r>    7.0080    0.0000 </r>
       <r>    7.2323    0.0000 </r>
       <r>    7.4839    0.0000 </r>
       <r>    7.4904    0.0000 </r>
       <r>    7.4930    0.0000 </r>
       <r>    7.6164    0.0000 </r>
       <r>    7.6223    0.0000 </r>
       <r>    7.6241    0.0000 </r>
       <r>    7.7746    0.0000 </r>
       <r>    7.7809    0.0000 </r>
       <r>    7.7822    0.0000 </r>
       <r>    7.7987    0.0000 </r>
       <r>    7.8002    0.0000 </r>
       <r>    7.8032    0.0000 </r>
       <r>    8.0268    0.0000 </r>
       <r>    8.0282    0.0000 </r>
       <r>    8.0309    0.0000 </r>
       <r>    8.0337    0.0000 </r>
       <r>    8.0360    0.0000 </r>
       <r>    8.0376    0.0000 </r>
       <r>    8.0793    0.0000 </r>
       <r>    8.2907    0.0000 </r>
       <r>    8.2962    0.0000 </r>
       <r>    8.2974    0.0000 </r>
       <r>    8.4957    0.0000 </r>
       <r>    8.4996    0.0000 </r>
       <r>    8.5021    0.0000 </r>
       <r>    8.5050    0.0000 </r>
       <r>    8.5088    0.0000 </r>
       <r>    8.5179    0.0000 </r>
       <r>    8.5414    0.0000 </r>
      </set>
      <set comment="kpoint 4">
       <r>   -5.9932    1.0000 </r>
       <r>   -5.4673    1.0000 </r>
       <r>   -5.4654    1.0000 </r>
       <r>   -5.4616    1.0000 </r>
       <r>   -4.9677    1.0000 </r>
       <r>   -4.9662    1.0000 </r>
       <r>   -4.9626    1.0000 </r>
       <r>   -4.5322    1.0000 </r>
       <r>   -4.4349    1.0000 </r>
       <r>   -4.4332    1.0000 </r>
       <r>   -4.4293    1.0000 </r>
       <r>   -4.0249    1.0000 </r>
       <r>   -4.0184    1.0000 </r>
       <r>   -4.0164    1.0000 </r>
       <r>   -4.0161    1.0000 </r>
       <r>   -4.0136    1.0000 </r>
       <r>   -4.0092    1.0000 </r>
       <r>   -3.8283    1.0000 </r>
       <r>   -3.8244    1.0000 </r>
       <r>   -3.8203    1.0000 </r>
       <r>   -3.3305    1.0000 </r>
       <r>   -3.3291    1.0000 </r>
       <r>   -3.3255    1.0000 </r>
       <r>   -2.9627    1.0000 </r>
       <r>   -2.9591    1.0000 </r>
       <r>   -2.9558    1.0000 </r>
       <r>   -2.7991    1.0000 </r>
       <r>   -2.7928    1.0000 </r>
       <r>   -2.7909    1.0000 </r>
       <r>   -2.7906    1.0000 </r>
       <r>   -2.7887    1.0000 </r>
       <r>   -2.7829    1.0000 </r>
       <r>   -1.2579    1.0000 </r>
       <r>   -1.2516    1.0000 </r>
       <r>   -1.2489    1.0000 </r>
       <r>   -1.2480    1.0000 </r>
       <r>   -1.2460    1.0000 </r>
       <r>   -1.2411    1.0000 </r>
       <r>   -1.1544    1.0000 </r>
       <r>   -1.1511    1.0000 </r>
       <r>   -1.1476    1.0000 </r>
       <r>   -1.0374    1.0000 </r>
       <r>   -1.0328    1.0000 </r>
       <r>   -1.0278    1.0000 </r>
       <r>   -0.9540    1.0000 </r>
       <r>   -0.9463    1.0000 </r>
       <r>   -0.9396    1.0000 </r>
       <r>   -0.2446    1.0000 </r>
       <r>   -0.1677    1.0000 </r>
       <r>   -0.1636    1.0000 </r>
       <r>   -0.1607    1.0000 </r>
       <r>   -0.1593    1.0000 </r>
       <r>   -0.1563    1.0000 </r>
       <r>   -0.1531    1.0000 </r>
       <r>    0.7084    1.0000 </r>
       <r>    0.7144    1.0000 </r>
       <r>    0.7200    1.0000 </r>
       <r>    1.0430    1.0000 </r>
       <r>    1.0472    1.0000 </r>
       <r>    1.0511    1.0000 </r>
       <r>    1.6521    1.0000 </r>
       <r>    1.6545    1.0000 </r>
       <r>    1.6561    1.0000 </r>
       <r>    1.6580    1.0000 </r>
       <r>    1.6588    1.0000 </r>
       <r>    1.6619    1.0000 </r>
       <r>    1.7136    1.0000 </r>
       <r>    1.7163    1.0000 </r>
       <r>    1.7187    1.0000 </r>
       <r>    2.2655    1.0000 </r>
       <r>    2.2679    1.0000 </r>
       <r>    2.2698    1.0000 </r>
       <r>    2.3653    1.0000 </r>
       <r>    2.3682    1.0000 </r>
       <r>    2.3696    1.0000 </r>
       <r>    2.3720    1.0000 </r>
       <r>    2.3737    1.0000 </r>
       <r>    2.3760    1.0000 </r>
       <r>    2.4214    1.0000 </r>
       <r>    2.4246    1.0000 </r>
       <r>    2.4293    1.0000 </r>
       <r>    2.7296    1.0000 </r>
       <r>    2.7332    1.0000 </r>
       <r>    2.7346    1.0000 </r>
       <r>    2.7350    1.0000 </r>
       <r>    2.7365    1.0000 </r>
       <r>    2.7407    1.0000 </r>
       <r>    2.9969    1.0000 </r>
       <r>    2.9989    1.0000 </r>
       <r>    3.0020    1.0000 </r>
       <r>    3.0099    1.0000 </r>
       <r>    3.0135    1.0000 </r>
       <r>    3.0170    1.0000 </r>
       <r>    3.3586    1.0000 </r>
       <r>    3.3622    1.0000 </r>
       <r>    3.3646    1.0000 </r>
       <r>    3.3808    1.0000 </r>
       <r>    3.3839    1.0000 </r>
       <r>    3.3887    1.0000 </r>
       <r>    3.4640    1.0000 </r>
       <r>    3.4672    1.0000 </r>
       <r>    3.4688    1.0000 </r>
       <r>    3.7332    1.0000 </r>
       <r>    3.7395    1.0000 </r>
       <r>    3.7407    1.0000 </r>
       <r>    3.7414    1.0000 </r>
       <r>    3.7433    1.0000 </r>
       <r>    3.7492    1.0000 </r>
       <r>    3.7778    1.0000 </r>
       <r>    3.7814    1.0000 </r>
       <r>    3.7834    1.0000 </r>
       <r>    4.0407    1.0000 </r>
       <r>    4.0948    1.0000 </r>
       <r>    4.0977    1.0000 </r>
       <r>    4.1014    1.0000 </r>
       <r>    4.3380    1.0000 </r>
       <r>    4.3414    1.0000 </r>
       <r>    4.3436    1.0000 </r>
       <r>    4.4002    1.0000 </r>
       <r>    4.4058    1.0000 </r>
       <r>    4.4118    1.0000 </r>
       <r>    4.5588    1.0000 </r>
       <r>    4.5670    1.0000 </r>
       <r>    4.8660    1.0000 </r>
       <r>    4.8707    1.0000 </r>
       <r>    4.8736    1.0000 </r>
       <r>    5.3451    1.0000 </r>
       <r>    5.3543    1.0000 </r>
       <r>    6.5603    0.0000 </r>
       <r>    6.5628    0.0000 </r>
       <r>    6.5670    0.0000 </r>
       <r>    6.9992    0.0000 </r>
       <r>    7.0058    0.0000 </r>
       <r>    7.0082    0.0000 </r>
       <r>    7.2337    0.0000 </r>
       <r>    7.4858    0.0000 </r>
       <r>    7.4919    0.0000 </r>
       <r>    7.4944    0.0000 </r>
       <r>    7.6158    0.0000 </r>
       <r>    7.6196    0.0000 </r>
       <r>    7.6232    0.0000 </r>
       <r>    7.7758    0.0000 </r>
       <r>    7.7802    0.0000 </r>
       <r>    7.7830    0.0000 </r>
       <r>    7.7985    0.0000 </r>
       <r>    7.8001    0.0000 </r>
       <r>    7.8055    0.0000 </r>
       <r>    8.0250    0.0000 </r>
       <r>    8.0264    0.0000 </r>
       <r>    8.0294    0.0000 </r>
       <r>    8.0318    0.0000 </r>
       <r>    8.0337    0.0000 </r>
       <r>    8.0365    0.0000 </r>
       <r>    8.0816    0.0000 </r>
       <r>    8.2914    0.0000 </r>
       <r>    8.2956    0.0000 </r>
       <r>    8.2979    0.0000 </r>
       <r>    8.4926    0.0000 </r>
       <r>    8.4999    0.0000 </r>
       <r>    8.5032    0.0000 </r>
       <r>    8.5057    0.0000 </r>
       <r>    8.5080    0.0000 </r>
       <r>    8.5135    0.0000 </r>
       <r>    8.5394    0.0000 </r>
      </set>
     </set>
    </set>
   </array>
  </eigenvalues>
  <separator name="orbital magnetization" >
   <v name="MAGDIPOLOUT">      0.00000000      0.00000000      0.00000000</v>
  </separator>
  <dos>
   <i name="efermi">      5.59866612 </i>
   <total>
    <array>
     <dimension dim="1">gridpoints</dimension>
     <dimension dim="2">spin</dimension>
     <field>energy</field>
     <field>total</field>
     <field>integrated</field>
     <set>
      <set comment="spin 1">
       <r>    -6.7202     0.0000     0.0000 </r>
       <r>    -6.6669     0.0000     0.0000 </r>
       <r>    -6.6136     0.0000     0.0000 </r>
       <r>    -6.5603     0.0000     0.0000 </r>
       <r>    -6.5070     0.0000     0.0000 </r>
       <r>    -6.4537     0.0000     0.0000 </r>
       <r>    -6.4003     0.0000     0.0000 </r>
       <r>    -6.3470     0.0000     0.0000 </r>
       <r>    -6.2937     0.0000     0.0000 </r>
       <r>    -6.2404     0.0000     0.0000 </r>
       <r>    -6.1871     0.0000     0.0000 </r>
       <r>    -6.1338     0.0013     0.0001 </r>
       <r>    -6.0805     0.2526     0.0135 </r>
       <r>    -6.0271     6.0547     0.3363 </r>
       <r>    -5.9738    20.2377     1.4153 </r>
       <r>    -5.9205    10.2183     1.9601 </r>
       <r>    -5.8672     0.7421     1.9996 </r>
       <r>    -5.8139     0.0069     2.0000 </r>
       <r>    -5.7606     0.0000     2.0000 </r>
       <r>    -5.7073     0.0000     2.0000 </r>
       <r>    -5.6539     0.0000     2.0000 </r>
       <r>    -5.6006     0.0071     2.0004 </r>
       <r>    -5.5473     1.1067     2.0594 </r>
       <r>    -5.4940    21.9044     3.2272 </r>
       <r>    -5.4407    61.5538     6.5089 </r>
       <r>    -5.3874    26.3383     7.9131 </r>
       <r>    -5.3341     1.6176     7.9993 </r>
       <r>    -5.2808     0.0127     8.0000 </r>
       <r>    -5.2274     0.0000     8.0000 </r>
       <r>    -5.1741     0.0000     8.0000 </r>
       <r>    -5.1208     0.0007     8.0000 </r>
       <r>    -5.0675     0.2240     8.0120 </r>
       <r>    -5.0142     9.3122     8.5084 </r>
       <r>    -4.9609    52.5993    11.3127 </r>
       <r>    -4.9076    44.6730    13.6944 </r>
       <r>    -4.8542     5.6365    13.9949 </r>
       <r>    -4.8009     0.0946    14.0000 </r>
       <r>    -4.7476     0.0002    14.0000 </r>
       <r>    -4.6943     0.0001    14.0000 </r>
       <r>    -4.6410     0.0393    14.0021 </r>
       <r>    -4.5877     2.1538    14.1169 </r>
       <r>    -4.5344    15.8884    14.9640 </r>
       <r>    -4.4810    26.2436    16.3632 </r>
       <r>    -4.4277    55.3598    19.3146 </r>
       <r>    -4.3744    44.6554    21.6954 </r>
       <r>    -4.3211     5.6191    21.9950 </r>
       <r>    -4.2678     0.0943    22.0000 </r>
       <r>    -4.2145     0.0002    22.0000 </r>
       <r>    -4.1612     0.0055    22.0003 </r>
       <r>    -4.1078     1.1584    22.0621 </r>
       <r>    -4.0545    30.9453    23.7119 </r>
       <r>    -4.0012   117.6881    29.9863 </r>
       <r>    -3.9479    69.1963    33.6755 </r>
       <r>    -3.8946     8.7105    34.1399 </r>
       <r>    -3.8413    33.0082    35.8997 </r>
       <r>    -3.7880    59.7033    39.0827 </r>
       <r>    -3.7346    16.5558    39.9653 </r>
       <r>    -3.6813     0.6469    39.9998 </r>
       <r>    -3.6280     0.0032    40.0000 </r>
       <r>    -3.5747     0.0000    40.0000 </r>
       <r>    -3.5214     0.0000    40.0000 </r>
       <r>    -3.4681     0.0047    40.0002 </r>
       <r>    -3.4148     0.8365    40.0448 </r>
       <r>    -3.3614    18.9384    41.0545 </r>
       <r>    -3.3081    60.7670    44.2943 </r>
       <r>    -3.2548    29.8400    45.8852 </r>
       <r>    -3.2015     2.1341    45.9989 </r>
       <r>    -3.1482     0.0198    46.0000 </r>
       <r>    -3.0949     0.0075    46.0004 </r>
       <r>    -3.0416     1.1412    46.0612 </r>
       <r>    -2.9882    22.1263    47.2409 </r>
       <r>    -2.9349    61.4605    50.5176 </r>
       <r>    -2.8816    27.4023    51.9785 </r>
       <r>    -2.8283    33.3964    53.7590 </r>
       <r>    -2.7750   118.2003    60.0608 </r>
       <r>    -2.7217    67.9970    63.6860 </r>
       <r>    -2.6684     5.8236    63.9965 </r>
       <r>    -2.6150     0.0663    64.0000 </r>
       <r>    -2.5617     0.0001    64.0000 </r>
       <r>    -2.5084     0.0000    64.0000 </r>
       <r>    -2.4551     0.0000    64.0000 </r>
       <r>    -2.4018     0.0000    64.0000 </r>
       <r>    -2.3485     0.0000    64.0000 </r>
       <r>    -2.2952     0.0000    64.0000 </r>
       <r>    -2.2418     0.0000    64.0000 </r>
       <r>    -2.1885     0.0000    64.0000 </r>
       <r>    -2.1352     0.0000    64.0000 </r>
       <r>    -2.0819     0.0000    64.0000 </r>
       <r>    -2.0286     0.0000    64.0000 </r>
       <r>    -1.9753     0.0000    64.0000 </r>
       <r>    -1.9220     0.0000    64.0000 </r>
       <r>    -1.8686     0.0000    64.0000 </r>
       <r>    -1.8153     0.0000    64.0000 </r>
       <r>    -1.7620     0.0000    64.0000 </r>
       <r>    -1.7087     0.0000    64.0000 </r>
       <r>    -1.6554     0.0000    64.0000 </r>
       <r>    -1.6021     0.0000    64.0000 </r>
       <r>    -1.5488     0.0000    64.0000 </r>
       <r>    -1.4954     0.0000    64.0000 </r>
       <r>    -1.4421     0.0000    64.0000 </r>
       <r>    -1.3888     0.0101    64.0005 </r>
       <r>    -1.3355     1.7158    64.0920 </r>
       <r>    -1.2822    37.8343    66.1091 </r>
       <r>    -1.2289   122.4142    72.6355 </r>
       <r>    -1.1756    86.1796    77.2301 </r>
       <r>    -1.1222    66.5621    80.7788 </r>
       <r>    -1.0689    39.0692    82.8618 </r>
       <r>    -1.0156    63.8590    86.2663 </r>
       <r>    -0.9623    67.0929    89.8433 </r>
       <r>    -0.9090    61.4805    93.1211 </r>
       <r>    -0.8557    15.8668    93.9671 </r>
       <r>    -0.8024     0.6149    93.9998 </r>
       <r>    -0.7490     0.0031    94.0000 </r>
       <r>    -0.6957     0.0000    94.0000 </r>
       <r>    -0.6424     0.0000    94.0000 </r>
       <r>    -0.5891     0.0000    94.0000 </r>
       <r>    -0.5358     0.0000    94.0000 </r>
       <r>    -0.4825     0.0000    94.0000 </r>
       <r>    -0.4292     0.0000    94.0000 </r>
       <r>    -0.3758     0.0040    94.0002 </r>
       <r>    -0.3225     0.5186    94.0279 </r>
       <r>    -0.2692     8.8625    94.5004 </r>
       <r>    -0.2159    33.6032    96.2919 </r>
       <r>    -0.1626   100.4341   101.6464 </r>
       <r>    -0.1093   101.7372   107.0705 </r>
       <r>    -0.0560    17.0344   107.9787 </r>
       <r>    -0.0027     0.3992   107.9999 </r>
       <r>     0.0507     0.0012   108.0000 </r>
       <r>     0.1040     0.0000   108.0000 </r>
       <r>     0.1573     0.0000   108.0000 </r>
       <r>     0.2106     0.0000   108.0000 </r>
       <r>     0.2639     0.0000   108.0000 </r>
       <r>     0.3172     0.0000   108.0000 </r>
       <r>     0.3705     0.0000   108.0000 </r>
       <r>     0.4239     0.0000   108.0000 </r>
       <r>     0.4772     0.0000   108.0000 </r>
       <r>     0.5305     0.0000   108.0000 </r>
       <r>     0.5838     0.0143   108.0008 </r>
       <r>     0.6371     1.7022   108.0915 </r>
       <r>     0.6904    26.6210   109.5108 </r>
       <r>     0.7437    61.2092   112.7741 </r>
       <r>     0.7971    21.8557   113.9393 </r>
       <r>     0.8504     1.1304   113.9996 </r>
       <r>     0.9037     0.0105   114.0002 </r>
       <r>     0.9570     0.6216   114.0333 </r>
       <r>     1.0103    16.2496   114.8996 </r>
       <r>     1.0636    59.5917   118.0767 </r>
       <r>     1.1169    33.3207   119.8532 </r>
       <r>     1.1703     2.7248   119.9985 </r>
       <r>     1.2236     0.0290   120.0000 </r>
       <r>     1.2769     0.0000   120.0000 </r>
       <r>     1.3302     0.0000   120.0000 </r>
       <r>     1.3835     0.0000   120.0000 </r>
       <r>     1.4368     0.0000   120.0000 </r>
       <r>     1.4901     0.0003   120.0000 </r>
       <r>     1.5435     0.1553   120.0083 </r>
       <r>     1.5968    10.0145   120.5422 </r>
       <r>     1.6501    88.6947   125.2709 </r>
       <r>     1.7034   145.2929   133.0171 </r>
       <r>     1.7567    78.7264   137.2143 </r>
       <r>     1.8100    14.2829   137.9758 </r>
       <r>     1.8633     0.4525   137.9999 </r>
       <r>     1.9167     0.0018   138.0000 </r>
       <r>     1.9700     0.0000   138.0000 </r>
       <r>     2.0233     0.0000   138.0000 </r>
       <r>     2.0766     0.0000   138.0000 </r>
       <r>     2.1299     0.0056   138.0003 </r>
       <r>     2.1832     0.9558   138.0513 </r>
       <r>     2.2365    20.3724   139.1374 </r>
       <r>     2.2899    63.8353   142.5407 </r>
       <r>     2.3432    75.8817   146.5863 </r>
       <r>     2.3965   147.3157   154.4403 </r>
       <r>     2.4498   111.4407   160.3817 </r>
       <r>     2.5031    28.7533   161.9146 </r>
       <r>     2.5564     1.5891   161.9993 </r>
       <r>     2.6097     0.0595   162.0025 </r>
       <r>     2.6631     4.7787   162.2573 </r>
       <r>     2.7164    62.8109   165.6060 </r>
       <r>     2.7697   120.5744   172.0343 </r>
       <r>     2.8230    35.3948   173.9214 </r>
       <r>     2.8763     1.5025   174.0015 </r>
       <r>     2.9296     3.7602   174.2019 </r>
       <r>     2.9829    54.3956   177.1020 </r>
       <r>     3.0363   120.9161   183.5485 </r>
       <r>     3.0896    43.5777   185.8718 </r>
       <r>     3.1429     2.3861   185.9991 </r>
       <r>     3.1962     0.0178   186.0000 </r>
       <r>     3.2495     0.0944   186.0050 </r>
       <r>     3.3028     6.5245   186.3529 </r>
       <r>     3.3561    66.5026   189.8984 </r>
       <r>     3.4095   120.7365   196.3354 </r>
       <r>     3.4628    80.8164   200.6440 </r>
       <r>     3.5161    53.7752   203.5110 </r>
       <r>     3.5694     8.9622   203.9888 </r>
       <r>     3.6227     0.3101   204.0054 </r>
       <r>     3.6760     7.6861   204.4151 </r>
       <r>     3.7293    83.6333   208.8740 </r>
       <r>     3.7827   164.6519   217.6523 </r>
       <r>     3.8360    73.9241   221.5935 </r>
       <r>     3.8893     7.4975   221.9932 </r>
       <r>     3.9426     0.2364   222.0058 </r>
       <r>     3.9959     4.0295   222.2206 </r>
       <r>     4.0492    27.7883   223.7021 </r>
       <r>     4.1025    66.1101   227.2267 </r>
       <r>     4.1559    46.2189   229.6908 </r>
       <r>     4.2092     5.7136   229.9955 </r>
       <r>     4.2625     1.5991   230.0807 </r>
       <r>     4.3158    25.9994   231.4668 </r>
       <r>     4.3691    77.9927   235.6250 </r>
       <r>     4.4224    82.1100   240.0026 </r>
       <r>     4.4757    35.1362   241.8758 </r>
       <r>     4.5291    15.0824   242.6800 </r>
       <r>     4.5824    40.3836   244.8330 </r>
       <r>     4.6357    20.3723   245.9191 </r>
       <r>     4.6890     1.5031   245.9992 </r>
       <r>     4.7423     0.0329   246.0010 </r>
       <r>     4.7956     2.0255   246.1090 </r>
       <r>     4.8489    29.0258   247.6565 </r>
       <r>     4.9023    60.8853   250.9025 </r>
       <r>     4.9556    19.6714   251.9513 </r>
       <r>     5.0089     0.9088   251.9997 </r>
       <r>     5.0622     0.0053   252.0000 </r>
       <r>     5.1155     0.0000   252.0000 </r>
       <r>     5.1688     0.0000   252.0000 </r>
       <r>     5.2221     0.0126   252.0007 </r>
       <r>     5.2754     1.3709   252.0738 </r>
       <r>     5.3288    19.4670   253.1116 </r>
       <r>     5.3821    40.5427   255.2731 </r>
       <r>     5.4354    13.0302   255.9678 </r>
       <r>     5.4887     0.6000   255.9998 </r>
       <r>     5.5420     0.0035   256.0000 </r>
       <r>     5.5953     0.0000   256.0000 </r>
       <r>     5.6486     0.0000   256.0000 </r>
       <r>     5.7020     0.0000   256.0000 </r>
       <r>     5.7553     0.0000   256.0000 </r>
       <r>     5.8086     0.0000   256.0000 </r>
       <r>     5.8619     0.0000   256.0000 </r>
       <r>     5.9152     0.0000   256.0000 </r>
       <r>     5.9685     0.0000   256.0000 </r>
       <r>     6.0218     0.0000   256.0000 </r>
       <r>     6.0752     0.0000   256.0000 </r>
       <r>     6.1285     0.0000   256.0000 </r>
       <r>     6.1818     0.0000   256.0000 </r>
       <r>     6.2351     0.0000   256.0000 </r>
       <r>     6.2884     0.0000   256.0000 </r>
       <r>     6.3417     0.0000   256.0000 </r>
       <r>     6.3950     0.0001   256.0000 </r>
       <r>     6.4484     0.0665   256.0036 </r>
       <r>     6.5017     4.5430   256.2458 </r>
       <r>     6.5550    41.1377   258.4390 </r>
       <r>     6.6083    55.2395   261.3840 </r>
       <r>     6.6616    11.2380   261.9832 </r>
       <r>     6.7149     0.3147   261.9999 </r>
       <r>     6.7682     0.0011   262.0000 </r>
       <r>     6.8216     0.0000   262.0000 </r>
       <r>     6.8749     0.0153   262.0008 </r>
       <r>     6.9282     1.7921   262.0964 </r>
       <r>     6.9815    27.4035   263.5574 </r>
       <r>     7.0348    61.2080   266.8206 </r>
       <r>     7.0881    21.0750   267.9442 </r>
       <r>     7.1414     1.2104   268.0087 </r>
       <r>     7.1948     4.9130   268.2707 </r>
       <r>     7.2481    19.5903   269.3151 </r>
       <r>     7.3014    11.8009   269.9443 </r>
       <r>     7.3547     1.0410   269.9998 </r>
       <r>     7.4080     1.1314   270.0601 </r>
       <r>     7.4613    21.8718   271.2262 </r>
       <r>     7.5146    61.5592   274.5081 </r>
       <r>     7.5680    34.5533   276.3503 </r>
       <r>     7.6213    51.8918   279.1169 </r>
       <r>     7.6746    47.4582   281.6471 </r>
       <r>     7.7279    16.7572   282.5405 </r>
       <r>     7.7812    80.1341   286.8128 </r>
       <r>     7.8345   108.3123   292.5873 </r>
       <r>     7.8878    25.5521   293.9496 </r>
       <r>     7.9412     2.3035   294.0724 </r>
       <r>     7.9945    33.9882   295.8845 </r>
       <r>     8.0478   125.5649   302.5789 </r>
       <r>     8.1011    85.4618   307.1352 </r>
       <r>     8.1544    15.4261   307.9576 </r>
       <r>     8.2077     1.5671   308.0412 </r>
       <r>     8.2610    18.2695   309.0152 </r>
       <r>     8.3144    60.6038   312.2462 </r>
       <r>     8.3677    30.6454   313.8801 </r>
       <r>     8.4210     4.5932   314.1249 </r>
       <r>     8.4743    44.2471   316.4839 </r>
       <r>     8.5276   132.6137   323.5541 </r>
       <r>     8.5809    74.4076   327.5211 </r>
       <r>     8.6342     8.7718   327.9888 </r>
       <r>     8.6876     0.2099   328.0000 </r>
       <r>     8.7409     0.0008   328.0000 </r>
       <r>     8.7942     0.0000   328.0000 </r>
       <r>     8.8475     0.0000   328.0000 </r>
       <r>     8.9008     0.0000   328.0000 </r>
       <r>     8.9541     0.0000   328.0000 </r>
       <r>     9.0074     0.0000   328.0000 </r>
       <r>     9.0608     0.0000   328.0000 </r>
       <r>     9.1141     0.0000   328.0000 </r>
       <r>     9.1674     0.0000   328.0000 </r>
       <r>     9.2207     0.0000   328.0000 </r>
       <r>     9.2740     0.0000   328.0000 </r>
      </set>
     </set>
    </array>
   </total>
  </dos>
 </calculation>
 <structure name="finalpos" >
  <crystal>
   <varray name="basis" >
    <v>      10.93252578       0.00000000       0.00000000 </v>
    <v>       0.00000000      10.93252578       0.00000000 </v>
    <v>       0.00000000       0.00000000      10.93252578 </v>
   </varray>
   <i name="volume">   1306.65679237 </i>
   <varray name="rec_basis" >
    <v>       0.09147017       0.00000000       0.00000000 </v>
    <v>       0.00000000       0.09147017       0.00000000 </v>
    <v>       0.00000000       0.00000000       0.09147017 </v>
   </varray>
  </crystal>
  <varray name="positions" >
   <v>       0.44024411       0.43750000       0.43750000 </v>
   <v>       0.93750000       0.43750000       0.43750000 </v>
   <v>       0.43750000       0.93750000       0.43750000 </v>
   <v>       0.93750000       0.93750000       0.43750000 </v>
   <v>       0.43750000       0.43750000       0.93750000 </v>
   <v>       0.93750000       0.43750000       0.93750000 </v>
   <v>       0.43750000       0.93750000       0.93750000 </v>
   <v>       0.93750000       0.93750000       0.93750000 </v>
   <v>       0.43750000       0.18475589       0.18750000 </v>
   <v>       0.93750000       0.18750000       0.18750000 </v>
   <v>       0.43750000       0.68750000       0.18750000 </v>
   <v>       0.93750000       0.68750000       0.18750000 </v>
   <v>       0.43750000       0.18750000       0.68750000 </v>
   <v>       0.93750000       0.18750000       0.68750000 </v>
   <v>       0.43750000       0.68750000       0.68750000 </v>
   <v>       0.93750000       0.68750000       0.68750000 </v>
   <v>       0.18750000       0.43750000       0.18750000 </v>
   <v>       0.68750000       0.43750000       0.18750000 </v>
   <v>       0.18750000       0.93750000       0.18750000 </v>
   <v>       0.68750000       0.93750000       0.18750000 </v>
   <v>       0.18750000       0.43750000       0.68750000 </v>
   <v>       0.68750000       0.43750000       0.68750000 </v>
   <v>       0.18750000       0.93750000       0.68750000 </v>
   <v>       0.68750000       0.93750000       0.68750000 </v>
   <v>       0.18750000       0.18750000       0.43750000 </v>
   <v>       0.68750000       0.18750000       0.43750000 </v>
   <v>       0.18750000       0.68750000       0.43750000 </v>
   <v>       0.68750000       0.68750000       0.43750000 </v>
   <v>       0.18750000       0.18750000       0.93750000 </v>
   <v>       0.68750000       0.18750000       0.93750000 </v>
   <v>       0.18750000       0.68750000       0.93750000 </v>
   <v>       0.68750000       0.68750000       0.93750000 </v>
   <v>       0.06250000       0.06250000       0.06250000 </v>
   <v>       0.56250000       0.06250000       0.06250000 </v>
   <v>       0.06250000       0.56250000       0.06250000 </v>
   <v>       0.56250000       0.56250000       0.06250000 </v>
   <v>       0.06250000       0.06250000       0.56250000 </v>
   <v>       0.56250000       0.06250000       0.56250000 </v>
   <v>       0.06250000       0.56250000       0.56250000 </v>
   <v>       0.56250000       0.56250000       0.56250000 </v>
   <v>       0.06250000       0.31250000       0.31250000 </v>
   <v>       0.56250000       0.31250000       0.31250000 </v>
   <v>       0.06250000       0.81250000       0.31250000 </v>
   <v>       0.56250000       0.81250000       0.31250000 </v>
   <v>       0.06250000       0.31250000       0.81250000 </v>
   <v>       0.56250000       0.31250000       0.81250000 </v>
   <v>       0.06250000       0.81250000       0.81250000 </v>
   <v>       0.56250000       0.81250000       0.81250000 </v>
   <v>       0.31250000       0.06250000       0.31250000 </v>
   <v>       0.81250000       0.06250000       0.31250000 </v>
   <v>       0.31250000       0.56250000       0.31250000 </v>
   <v>       0.81250000       0.56250000       0.31250000 </v>
   <v>       0.31250000       0.06250000       0.81250000 </v>
   <v>       0.81250000       0.06250000       0.81250000 </v>
   <v>       0.31250000       0.56250000       0.81250000 </v>
   <v>       0.81250000       0.56250000       0.81250000 </v>
   <v>       0.31250000       0.31250000       0.06250000 </v>
   <v>       0.81250000       0.31250000       0.06250000 </v>
   <v>       0.31250000       0.81250000       0.06250000 </v>
   <v>       0.81250000       0.81250000       0.06250000 </v>
   <v>       0.31250000       0.31250000       0.56250000 </v>
   <v>       0.81250000       0.31250000       0.56250000 </v>
   <v>       0.31250000       0.81250000       0.56250000 </v>
   <v>       0.81250000       0.81250000       0.56250000 </v>
  </varray>
 </structure>
</modeling>
