
     Program PWSCF v.5.3.0 (svn rev. 11974) starts on  3Feb2016 at 13:31:57 

     This program is part of the open-source Quantum ESPRESSO suite
     for quantum simulation of materials; please cite
         "P. Giannozzi et al., J. Phys.:Condens. Matter 21 395502 (2009);
          URL http://www.quantum-espresso.org", 
     in publications or presentations arising from this work. More details at
     http://www.quantum-espresso.org/quote

     Parallel version (MPI), running on    16 processors
     R & G space division:  proc/nbgrp/npool/nimage =      16
     Reading input from Si.in

     Current dimensions of program PWSCF are:
     Max number of different atomic species (ntypx) = 10
     Max number of k-points (npk) =  40000
     Max angular momentum in pseudopotentials (lmaxx) =  3
               file Si.pbe-n-kjpaw_psl.0.1.UPF: wavefunction(s)  3S renormalized

     Subspace diagonalization in iterative solution of the eigenvalue problem:
     one sub-group per k-point group (pool) will be used
     scalapack distributed-memory algorithm (size of sub-group:  2*  2 procs)

 
     Parallelization info
     --------------------
     sticks:   dense  smooth     PW     G-vecs:    dense   smooth      PW
     Min         424     424    109                26332    26332    3467
     Max         425     425    110                26336    26336    3472
     Sum        6785    6785   1757               421349   421349   55515
 


     bravais-lattice index     =            0
     lattice parameter (alat)  =      20.6591  a.u.
     unit-cell volume          =    8817.2783 (a.u.)^3
     number of atoms/cell      =           64
     number of atomic types    =            1
     number of electrons       =       256.00
     number of Kohn-Sham states=          154
     kinetic-energy cutoff     =      50.0000  Ry
     charge density cutoff     =     200.0000  Ry
     convergence threshold     =      1.0E-09
     mixing beta               =       0.7000
     number of iterations used =            8  plain     mixing
     Exchange-correlation      =  SLA  PW   PBX  PBC ( 1  4  3  4 0 0)

     celldm(1)=  20.659106  celldm(2)=   0.000000  celldm(3)=   0.000000
     celldm(4)=   0.000000  celldm(5)=   0.000000  celldm(6)=   0.000000

     crystal axes: (cart. coord. in units of alat)
               a(1) = (   1.000000   0.000000   0.000000 )  
               a(2) = (   0.000000   1.000000   0.000000 )  
               a(3) = (   0.000000   0.000000   1.000000 )  

     reciprocal axes: (cart. coord. in units 2 pi/alat)
               b(1) = (  1.000000  0.000000  0.000000 )  
               b(2) = (  0.000000  1.000000  0.000000 )  
               b(3) = (  0.000000  0.000000  1.000000 )  


     PseudoPot. # 1 for Si read from file:
     /home/togo/espresso/pseudo/Si.pbe-n-kjpaw_psl.0.1.UPF
     MD5 check sum: b9d333a40e496bef61db012f150758bf
     Pseudo is Projector augmented-wave + core cor, Zval =  4.0
     Generated using "atomic" code by A. Dal Corso  v.5.0.2 svn rev. 9415
     Shape of augmentation charge: PSQ
     Using radial grid of 1141 points,  4 beta functions with: 
                l(1) =   0
                l(2) =   0
                l(3) =   1
                l(4) =   1
     Q(r) pseudized with 0 coefficients 


     atomic species   valence    mass     pseudopotential
        Si             4.00    28.08550     Si( 1.00)

     No symmetry found



   Cartesian axes

     site n.     atom                  positions (alat units)
         1           Si  tau(   1) = (   0.4404043   0.4375000   0.4375000  )
         2           Si  tau(   2) = (   0.9375000   0.4375000   0.4375000  )
         3           Si  tau(   3) = (   0.4375000   0.9375000   0.4375000  )
         4           Si  tau(   4) = (   0.9375000   0.9375000   0.4375000  )
         5           Si  tau(   5) = (   0.4375000   0.4375000   0.9375000  )
         6           Si  tau(   6) = (   0.9375000   0.4375000   0.9375000  )
         7           Si  tau(   7) = (   0.4395536   0.9395536   0.9375000  )
         8           Si  tau(   8) = (   0.9375000   0.9375000   0.9375000  )
         9           Si  tau(   9) = (   0.4375000   0.1875000   0.1875000  )
        10           Si  tau(  10) = (   0.9375000   0.1875000   0.1875000  )
        11           Si  tau(  11) = (   0.4375000   0.6875000   0.1875000  )
        12           Si  tau(  12) = (   0.9375000   0.6875000   0.1875000  )
        13           Si  tau(  13) = (   0.4375000   0.1875000   0.6875000  )
        14           Si  tau(  14) = (   0.9375000   0.1875000   0.6875000  )
        15           Si  tau(  15) = (   0.4375000   0.6875000   0.6875000  )
        16           Si  tau(  16) = (   0.9375000   0.6875000   0.6875000  )
        17           Si  tau(  17) = (   0.1875000   0.4375000   0.1875000  )
        18           Si  tau(  18) = (   0.6875000   0.4375000   0.1875000  )
        19           Si  tau(  19) = (   0.1875000   0.9375000   0.1875000  )
        20           Si  tau(  20) = (   0.6875000   0.9375000   0.1875000  )
        21           Si  tau(  21) = (   0.1875000   0.4375000   0.6875000  )
        22           Si  tau(  22) = (   0.6875000   0.4375000   0.6875000  )
        23           Si  tau(  23) = (   0.1875000   0.9375000   0.6875000  )
        24           Si  tau(  24) = (   0.6875000   0.9375000   0.6875000  )
        25           Si  tau(  25) = (   0.1875000   0.1875000   0.4375000  )
        26           Si  tau(  26) = (   0.6875000   0.1875000   0.4375000  )
        27           Si  tau(  27) = (   0.1875000   0.6875000   0.4375000  )
        28           Si  tau(  28) = (   0.6875000   0.6875000   0.4375000  )
        29           Si  tau(  29) = (   0.1875000   0.1875000   0.9375000  )
        30           Si  tau(  30) = (   0.6875000   0.1875000   0.9375000  )
        31           Si  tau(  31) = (   0.1875000   0.6875000   0.9375000  )
        32           Si  tau(  32) = (   0.6875000   0.6875000   0.9375000  )
        33           Si  tau(  33) = (   0.0625000   0.0625000   0.0625000  )
        34           Si  tau(  34) = (   0.5625000   0.0625000   0.0625000  )
        35           Si  tau(  35) = (   0.0625000   0.5625000   0.0625000  )
        36           Si  tau(  36) = (   0.5625000   0.5625000   0.0625000  )
        37           Si  tau(  37) = (   0.0625000   0.0625000   0.5625000  )
        38           Si  tau(  38) = (   0.5625000   0.0625000   0.5625000  )
        39           Si  tau(  39) = (   0.0625000   0.5625000   0.5625000  )
        40           Si  tau(  40) = (   0.5625000   0.5625000   0.5625000  )
        41           Si  tau(  41) = (   0.0625000   0.3125000   0.3125000  )
        42           Si  tau(  42) = (   0.5625000   0.3125000   0.3125000  )
        43           Si  tau(  43) = (   0.0625000   0.8125000   0.3125000  )
        44           Si  tau(  44) = (   0.5625000   0.8125000   0.3125000  )
        45           Si  tau(  45) = (   0.0625000   0.3125000   0.8125000  )
        46           Si  tau(  46) = (   0.5625000   0.3125000   0.8125000  )
        47           Si  tau(  47) = (   0.0625000   0.8125000   0.8125000  )
        48           Si  tau(  48) = (   0.5625000   0.8125000   0.8125000  )
        49           Si  tau(  49) = (   0.3125000   0.0625000   0.3125000  )
        50           Si  tau(  50) = (   0.8125000   0.0625000   0.3125000  )
        51           Si  tau(  51) = (   0.3125000   0.5625000   0.3125000  )
        52           Si  tau(  52) = (   0.8125000   0.5625000   0.3125000  )
        53           Si  tau(  53) = (   0.3125000   0.0625000   0.8125000  )
        54           Si  tau(  54) = (   0.8125000   0.0625000   0.8125000  )
        55           Si  tau(  55) = (   0.3125000   0.5625000   0.8125000  )
        56           Si  tau(  56) = (   0.8125000   0.5625000   0.8125000  )
        57           Si  tau(  57) = (   0.3125000   0.3125000   0.0625000  )
        58           Si  tau(  58) = (   0.8125000   0.3125000   0.0625000  )
        59           Si  tau(  59) = (   0.3125000   0.8125000   0.0625000  )
        60           Si  tau(  60) = (   0.8125000   0.8125000   0.0625000  )
        61           Si  tau(  61) = (   0.3125000   0.3125000   0.5625000  )
        62           Si  tau(  62) = (   0.8125000   0.3125000   0.5625000  )
        63           Si  tau(  63) = (   0.3125000   0.8125000   0.5625000  )
        64           Si  tau(  64) = (   0.8125000   0.8125000   0.5625000  )

     number of k points=     4  gaussian smearing, width (Ry)=  0.0100
                       cart. coord. in units 2pi/alat
        k(    1) = (   0.2500000   0.2500000   0.2500000), wk =   0.5000000
        k(    2) = (  -0.2500000  -0.2500000   0.2500000), wk =   0.5000000
        k(    3) = (  -0.2500000   0.2500000  -0.2500000), wk =   0.5000000
        k(    4) = (   0.2500000  -0.2500000  -0.2500000), wk =   0.5000000

     Dense  grid:   421349 G-vectors     FFT dimensions: (  96,  96,  96)

     Largest allocated arrays     est. size (Mb)     dimensions
        Kohn-Sham Wavefunctions         7.73 Mb     (    3289,  154)
        NL pseudopotentials            25.70 Mb     (    3289,  512)
        Each V/rho on FFT grid          0.84 Mb     (   55296)
        Each G-vector array             0.20 Mb     (   26336)
        G-vector shells                 0.01 Mb     (    1719)
     Largest temporary arrays     est. size (Mb)     dimensions
        Auxiliary wavefunctions        30.91 Mb     (    3289,  616)
        Each subspace H/S matrix        1.45 Mb     (     308,  308)
        Each <psi_i|beta_j> matrix      1.20 Mb     (     512,  154)
        Arrays for rho mixing           6.75 Mb     (   55296,    8)

     Check: negative/imaginary core charge=   -0.000001    0.000000

     Initial potential from superposition of free atoms

     starting charge  255.96421, renormalised to  256.00000
     Starting wfc are  256 randomized atomic wfcs
     Checking if some PAW data can be deallocated... 

     total cpu time spent up to now is        9.1 secs

     per-process dynamical memory:   114.8 Mb

     Self-consistent Calculation

     iteration #  1     ecut=    50.00 Ry     beta=0.70
     Davidson diagonalization with overlap
     ethr =  1.00E-02,  avg # of iterations =  3.0

     Threshold (ethr) on eigenvalues was too large:
     Diagonalizing with lowered threshold

     Davidson diagonalization with overlap
     ethr =  7.00E-04,  avg # of iterations =  1.0

     total cpu time spent up to now is       43.7 secs

     total energy              =   -2990.45690905 Ry
     Harris-Foulkes estimate   =   -2990.87680881 Ry
     estimated scf accuracy    <       1.77324075 Ry

     iteration #  2     ecut=    50.00 Ry     beta=0.70
     Davidson diagonalization with overlap
     ethr =  6.93E-04,  avg # of iterations =  1.0

     total cpu time spent up to now is       56.8 secs

     total energy              =   -2990.52358257 Ry
     Harris-Foulkes estimate   =   -2990.52746399 Ry
     estimated scf accuracy    <       0.07632603 Ry

     iteration #  3     ecut=    50.00 Ry     beta=0.70
     Davidson diagonalization with overlap
     ethr =  2.98E-05,  avg # of iterations = 10.8

     total cpu time spent up to now is       86.3 secs

     total energy              =   -2990.53059388 Ry
     Harris-Foulkes estimate   =   -2990.53134464 Ry
     estimated scf accuracy    <       0.00192212 Ry

     iteration #  4     ecut=    50.00 Ry     beta=0.70
     Davidson diagonalization with overlap
     ethr =  7.51E-07,  avg # of iterations =  8.5

     total cpu time spent up to now is      126.4 secs

     total energy              =   -2990.53046023 Ry
     Harris-Foulkes estimate   =   -2990.53259234 Ry
     estimated scf accuracy    <       0.00665353 Ry

     iteration #  5     ecut=    50.00 Ry     beta=0.70
     Davidson diagonalization with overlap
     ethr =  7.51E-07,  avg # of iterations =  4.8

     total cpu time spent up to now is      149.6 secs

     total energy              =   -2990.53146189 Ry
     Harris-Foulkes estimate   =   -2990.53158002 Ry
     estimated scf accuracy    <       0.00033870 Ry

     iteration #  6     ecut=    50.00 Ry     beta=0.70
     Davidson diagonalization with overlap
     ethr =  1.32E-07,  avg # of iterations =  2.0

     total cpu time spent up to now is      166.2 secs

     total energy              =   -2990.53152132 Ry
     Harris-Foulkes estimate   =   -2990.53153881 Ry
     estimated scf accuracy    <       0.00004906 Ry

     iteration #  7     ecut=    50.00 Ry     beta=0.70
     Davidson diagonalization with overlap
     ethr =  1.92E-08,  avg # of iterations =  3.0

     total cpu time spent up to now is      184.2 secs

     total energy              =   -2990.53153041 Ry
     Harris-Foulkes estimate   =   -2990.53153252 Ry
     estimated scf accuracy    <       0.00000488 Ry

     iteration #  8     ecut=    50.00 Ry     beta=0.70
     Davidson diagonalization with overlap
     ethr =  1.91E-09,  avg # of iterations =  3.0

     total cpu time spent up to now is      204.4 secs

     total energy              =   -2990.53153167 Ry
     Harris-Foulkes estimate   =   -2990.53153192 Ry
     estimated scf accuracy    <       0.00000060 Ry

     iteration #  9     ecut=    50.00 Ry     beta=0.70
     Davidson diagonalization with overlap
     ethr =  2.36E-10,  avg # of iterations =  3.0

     total cpu time spent up to now is      222.9 secs

     total energy              =   -2990.53153173 Ry
     Harris-Foulkes estimate   =   -2990.53153183 Ry
     estimated scf accuracy    <       0.00000022 Ry

     iteration # 10     ecut=    50.00 Ry     beta=0.70
     Davidson diagonalization with overlap
     ethr =  8.65E-11,  avg # of iterations =  2.0

     total cpu time spent up to now is      238.7 secs

     total energy              =   -2990.53153171 Ry
     Harris-Foulkes estimate   =   -2990.53153177 Ry
     estimated scf accuracy    <       0.00000006 Ry

     iteration # 11     ecut=    50.00 Ry     beta=0.70
     Davidson diagonalization with overlap
     ethr =  2.17E-11,  avg # of iterations =  2.0

     total cpu time spent up to now is      255.8 secs

     total energy              =   -2990.53153172 Ry
     Harris-Foulkes estimate   =   -2990.53153172 Ry
     estimated scf accuracy    <          1.7E-09 Ry

     iteration # 12     ecut=    50.00 Ry     beta=0.70
     Davidson diagonalization with overlap
     ethr =  6.47E-13,  avg # of iterations =  3.0

     total cpu time spent up to now is      281.0 secs

     total energy              =   -2990.53153172 Ry
     Harris-Foulkes estimate   =   -2990.53153172 Ry
     estimated scf accuracy    <          2.5E-09 Ry

     iteration # 13     ecut=    50.00 Ry     beta=0.70
     Davidson diagonalization with overlap
     ethr =  6.47E-13,  avg # of iterations =  3.0

     total cpu time spent up to now is      301.7 secs

     End of self-consistent calculation

          k = 0.2500 0.2500 0.2500 ( 52563 PWs)   bands (ev):

    -5.6250  -5.0995  -5.0957  -5.0943  -4.5998  -4.5959  -4.5945  -4.1620
    -4.0656  -4.0622  -4.0609  -3.6556  -3.6529  -3.6468  -3.6458  -3.6437
    -3.6413  -3.4614  -3.4541  -3.4515  -2.9587  -2.9560  -2.9541  -2.5954
    -2.5883  -2.5854  -2.4289  -2.4258  -2.4206  -2.4196  -2.4170  -2.4150
    -0.8867  -0.8805  -0.8777  -0.8753  -0.8738  -0.8724  -0.7847  -0.7785
    -0.7753  -0.6649  -0.6611  -0.6539  -0.5877  -0.5818  -0.5743   0.1218
     0.2038   0.2097   0.2113   0.2156   0.2164   0.2187   1.0749   1.0838
     1.0885   1.4148   1.4183   1.4221   2.0256   2.0271   2.0281   2.0288
     2.0323   2.0335   2.0877   2.0896   2.0916   2.6342   2.6390   2.6401
     2.7391   2.7412   2.7424   2.7460   2.7485   2.7506   2.7958   2.7990
     2.8035   3.1002   3.1058   3.1084   3.1086   3.1099   3.1114   3.3714
     3.3726   3.3759   3.3841   3.3880   3.3907   3.7278   3.7324   3.7360
     3.7470   3.7547   3.7568   3.8381   3.8415   3.8430   4.1023   4.1054
     4.1122   4.1143   4.1152   4.1164   4.1524   4.1559   4.1575   4.4083
     4.4715   4.4723   4.4774   4.7140   4.7172   4.7194   4.7672   4.7742
     4.7784   4.9340   4.9414   5.2433   5.2472   5.2503   5.7226   5.7313
     6.9339   6.9401   6.9409   7.3729   7.3788   7.3812   7.6005   7.8595
     7.8649   7.8671   7.9860   7.9882   7.9954   8.1490   8.1519   8.1547
     8.1672   8.1690   8.1743   8.3915   8.3967   8.3994   8.4029   8.4038
     8.4063   8.4512

          k =-0.2500-0.2500 0.2500 ( 52563 PWs)   bands (ev):

    -5.6251  -5.0983  -5.0970  -5.0934  -4.5989  -4.5976  -4.5939  -4.1645
    -4.0657  -4.0644  -4.0612  -3.6532  -3.6503  -3.6482  -3.6471  -3.6415
    -3.6386  -3.4583  -3.4555  -3.4480  -2.9629  -2.9611  -2.9583  -2.5930
    -2.5901  -2.5833  -2.4265  -2.4247  -2.4220  -2.4211  -2.4156  -2.4124
    -0.8843  -0.8828  -0.8818  -0.8784  -0.8759  -0.8701  -0.7860  -0.7823
    -0.7763  -0.6695  -0.6635  -0.6596  -0.5783  -0.5703  -0.5641   0.1308
     0.2032   0.2052   0.2058   0.2102   0.2117   0.2176   1.0820   1.0871
     1.0957   1.4145   1.4185   1.4218   2.0239   2.0258   2.0296   2.0302
     2.0314   2.0326   2.0852   2.0868   2.0888   2.6402   2.6413   2.6459
     2.7346   2.7373   2.7405   2.7443   2.7452   2.7470   2.7909   2.7940
     2.7970   3.1041   3.1054   3.1066   3.1068   3.1094   3.1146   3.3675
     3.3714   3.3721   3.3817   3.3842   3.3880   3.7337   3.7358   3.7413
     3.7557   3.7580   3.7673   3.8356   3.8376   3.8410   4.1122   4.1133
     4.1142   4.1156   4.1234   4.1265   4.1491   4.1513   4.1558   4.4180
     4.4642   4.4700   4.4703   4.7096   4.7118   4.7148   4.7789   4.7839
     4.7919   4.9310   4.9385   5.2370   5.2398   5.2440   5.7171   5.7252
     6.9315   6.9322   6.9388   7.3721   7.3747   7.3806   7.5969   7.8563
     7.8588   7.8645   7.9879   7.9950   7.9972   8.1474   8.1510   8.1539
     8.1649   8.1693   8.1709   8.3981   8.4008   8.4018   8.4056   8.4080
     8.4124   8.4455

          k =-0.2500 0.2500-0.2500 ( 52563 PWs)   bands (ev):

    -5.6251  -5.0986  -5.0960  -5.0944  -4.5990  -4.5968  -4.5944  -4.1637
    -4.0657  -4.0630  -4.0621  -3.6562  -3.6497  -3.6482  -3.6471  -3.6420
    -3.6374  -3.4592  -3.4562  -3.4479  -2.9616  -2.9600  -2.9570  -2.5944
    -2.5907  -2.5821  -2.4290  -2.4241  -2.4220  -2.4211  -2.4154  -2.4120
    -0.8862  -0.8823  -0.8810  -0.8786  -0.8774  -0.8657  -0.7869  -0.7825
    -0.7739  -0.6693  -0.6634  -0.6556  -0.5782  -0.5756  -0.5681   0.1282
     0.2026   0.2051   0.2061   0.2100   0.2114   0.2248   1.0816   1.0848
     1.0933   1.4141   1.4172   1.4236   2.0234   2.0257   2.0296   2.0303
     2.0310   2.0337   2.0854   2.0877   2.0909   2.6383   2.6402   2.6446
     2.7352   2.7376   2.7419   2.7450   2.7458   2.7481   2.7913   2.7964
     2.7994   3.1026   3.1056   3.1060   3.1070   3.1080   3.1166   3.3677
     3.3718   3.3739   3.3813   3.3846   3.3908   3.7326   3.7349   3.7394
     3.7542   3.7567   3.7633   3.8356   3.8377   3.8434   4.1105   4.1119
     4.1131   4.1143   4.1193   4.1245   4.1493   4.1515   4.1586   4.4148
     4.4652   4.4705   4.4741   4.7099   4.7123   4.7178   4.7780   4.7793
     4.7871   4.9303   4.9411   5.2376   5.2405   5.2487   5.7169   5.7289
     6.9309   6.9344   6.9407   7.3724   7.3735   7.3829   7.5979   7.8571
     7.8588   7.8672   7.9860   7.9940   7.9972   8.1486   8.1497   8.1548
     8.1644   8.1690   8.1731   8.3970   8.3984   8.4014   8.4037   8.4062
     8.4128   8.4469

          k = 0.2500-0.2500-0.2500 ( 52563 PWs)   bands (ev):

    -5.6250  -5.0986  -5.0967  -5.0941  -4.5992  -4.5966  -4.5943  -4.1626
    -4.0650  -4.0637  -4.0611  -3.6565  -3.6524  -3.6468  -3.6458  -3.6442
    -3.6380  -3.4615  -3.4534  -3.4504  -2.9603  -2.9571  -2.9556  -2.5967
    -2.5876  -2.5840  -2.4296  -2.4258  -2.4206  -2.4195  -2.4175  -2.4124
    -0.8907  -0.8790  -0.8776  -0.8761  -0.8742  -0.8707  -0.7879  -0.7783
    -0.7745  -0.6682  -0.6611  -0.6538  -0.5838  -0.5766  -0.5743   0.1244
     0.1966   0.2100   0.2115   0.2152   0.2167   0.2190   1.0774   1.0861
     1.0890   1.4130   1.4195   1.4225   2.0241   2.0273   2.0280   2.0288
     2.0324   2.0338   2.0862   2.0895   2.0916   2.6353   2.6401   2.6418
     2.7376   2.7404   2.7412   2.7446   2.7475   2.7502   2.7934   2.7974
     2.8032   3.0984   3.1071   3.1081   3.1092   3.1097   3.1124   3.3689
     3.3722   3.3759   3.3820   3.3878   3.3907   3.7293   3.7346   3.7373
     3.7498   3.7564   3.7584   3.8359   3.8415   3.8428   4.1041   4.1094
     4.1140   4.1152   4.1165   4.1178   4.1499   4.1559   4.1577   4.4108
     4.4691   4.4711   4.4765   4.7105   4.7167   4.7188   4.7718   4.7785
     4.7796   4.9315   4.9423   5.2390   5.2464   5.2497   5.7191   5.7315
     6.9319   6.9381   6.9411   7.3703   7.3799   7.3809   7.5994   7.8567
     7.8647   7.8666   7.9860   7.9896   7.9973   8.1483   8.1527   8.1538
     8.1647   8.1689   8.1749   8.3912   8.3988   8.4013   8.4037   8.4059
     8.4077   8.4493

     the Fermi energy is     6.3282 ev

!    total energy              =   -2990.53153172 Ry
     Harris-Foulkes estimate   =   -2990.53153172 Ry
     estimated scf accuracy    <          9.5E-10 Ry

     total all-electron energy =    -37124.667085 Ry

     The total energy is the sum of the following terms:

     one-electron contribution =     178.60650667 Ry
     hartree contribution      =      35.70145161 Ry
     xc contribution           =    -391.44199440 Ry
     ewald contribution        =    -534.00619114 Ry
     one-center paw contrib.   =   -2279.39130446 Ry
     smearing contrib. (-TS)   =       0.00000000 Ry

     convergence has been achieved in  13 iterations

     Forces acting on atoms (Ry/au):

     atom    1 type  1   force =    -0.01622497   -0.00000550    0.00000002
     atom    2 type  1   force =     0.00003988    0.00001718    0.00000055
     atom    3 type  1   force =     0.00009418    0.00003974    0.00000074
     atom    4 type  1   force =    -0.00001243   -0.00033506   -0.00000006
     atom    5 type  1   force =     0.00009366    0.00001534   -0.00000016
     atom    6 type  1   force =    -0.00001222   -0.00000514    0.00000094
     atom    7 type  1   force =    -0.01173831   -0.01126335   -0.00060250
     atom    8 type  1   force =     0.00004051    0.00003922    0.00000012
     atom    9 type  1   force =    -0.00082034    0.00020342    0.00019513
     atom   10 type  1   force =     0.00000621    0.00003322   -0.00005247
     atom   11 type  1   force =    -0.00081572    0.00019484   -0.00019580
     atom   12 type  1   force =     0.00000775    0.00003310    0.00005021
     atom   13 type  1   force =    -0.00097438    0.00013446   -0.00013346
     atom   14 type  1   force =    -0.00000575    0.00002813    0.00005788
     atom   15 type  1   force =    -0.00097866    0.00013255    0.00012666
     atom   16 type  1   force =    -0.00000696    0.00002726   -0.00005608
     atom   17 type  1   force =     0.00025568   -0.00010269    0.00028732
     atom   18 type  1   force =     0.00026157   -0.00010793   -0.00029454
     atom   19 type  1   force =     0.00012859   -0.00030180   -0.00016332
     atom   20 type  1   force =     0.00013130   -0.00030127    0.00015784
     atom   21 type  1   force =     0.00026849    0.00010230   -0.00027452
     atom   22 type  1   force =     0.00027518    0.00010749    0.00028080
     atom   23 type  1   force =     0.00028970   -0.00044061    0.00031843
     atom   24 type  1   force =     0.00028659   -0.00044081   -0.00031878
     atom   25 type  1   force =     0.00031657    0.00031305   -0.00010897
     atom   26 type  1   force =     0.00021366   -0.00025667   -0.00010054
     atom   27 type  1   force =     0.00020792   -0.00025137    0.00009644
     atom   28 type  1   force =     0.00032271    0.00031692    0.00011459
     atom   29 type  1   force =     0.00004812   -0.00007432   -0.00001202
     atom   30 type  1   force =     0.00037869    0.00041232    0.00015055
     atom   31 type  1   force =     0.00036453    0.00039928   -0.00014648
     atom   32 type  1   force =     0.00004494   -0.00007166    0.00000708
     atom   33 type  1   force =    -0.00000253    0.00001657    0.00009291
     atom   34 type  1   force =     0.00502922    0.00479976    0.00397013
     atom   35 type  1   force =     0.00006210    0.00006213    0.00006161
     atom   36 type  1   force =    -0.00007518    0.00006846    0.00010051
     atom   37 type  1   force =     0.00006558    0.00022582    0.00006482
     atom   38 type  1   force =    -0.00006628    0.00003340    0.00010458
     atom   39 type  1   force =    -0.00000534    0.00004493    0.00008312
     atom   40 type  1   force =     0.00413066    0.00274321    0.00274256
     atom   41 type  1   force =    -0.00004924   -0.00007538   -0.00003918
     atom   42 type  1   force =     0.00409072   -0.00270531   -0.00270735
     atom   43 type  1   force =     0.00002534    0.00013557   -0.00002600
     atom   44 type  1   force =    -0.00014004   -0.00011402   -0.00005236
     atom   45 type  1   force =     0.00002728   -0.00002555   -0.00002399
     atom   46 type  1   force =    -0.00013004   -0.00008634   -0.00004701
     atom   47 type  1   force =    -0.00005633   -0.00009934   -0.00002138
     atom   48 type  1   force =     0.00113574    0.00090486    0.00001735
     atom   49 type  1   force =    -0.00013369   -0.00011626    0.00004943
     atom   50 type  1   force =     0.00002797    0.00013380    0.00002724
     atom   51 type  1   force =     0.00397148   -0.00248256    0.00248174
     atom   52 type  1   force =    -0.00004961   -0.00007506    0.00003653
     atom   53 type  1   force =     0.00118513    0.00085212    0.00007250
     atom   54 type  1   force =    -0.00005791   -0.00009949    0.00002225
     atom   55 type  1   force =    -0.00012625   -0.00008705    0.00004712
     atom   56 type  1   force =     0.00002912   -0.00002832    0.00002825
     atom   57 type  1   force =    -0.00007308    0.00006903   -0.00010139
     atom   58 type  1   force =     0.00006737    0.00006872   -0.00006882
     atom   59 type  1   force =     0.00462873    0.00440572   -0.00343431
     atom   60 type  1   force =    -0.00000421    0.00001581   -0.00009478
     atom   61 type  1   force =     0.00401020    0.00252060   -0.00252013
     atom   62 type  1   force =    -0.00000618    0.00004429   -0.00008057
     atom   63 type  1   force =    -0.00006416    0.00003165   -0.00010403
     atom   64 type  1   force =     0.00006674    0.00022659   -0.00006695

     Total force =     0.027869     Total SCF correction =     0.000063

     Writing output data file pwscf.save
 
     init_run     :      8.72s CPU      8.85s WALL (       1 calls)
     electrons    :    287.32s CPU    292.97s WALL (       1 calls)
     forces       :      4.11s CPU      4.17s WALL (       1 calls)

     Called by init_run:
     wfcinit      :      8.14s CPU      8.21s WALL (       1 calls)
     potinit      :      0.24s CPU      0.24s WALL (       1 calls)

     Called by electrons:
     c_bands      :    259.21s CPU    262.21s WALL (      14 calls)
     sum_band     :     24.00s CPU     26.37s WALL (      14 calls)
     v_of_rho     :      0.68s CPU      0.68s WALL (      14 calls)
     newd         :      0.99s CPU      1.01s WALL (      14 calls)
     PAW_pot      :      2.31s CPU      2.31s WALL (      14 calls)
     mix_rho      :      0.32s CPU      0.32s WALL (      14 calls)

     Called by c_bands:
     init_us_2    :      2.65s CPU      2.66s WALL (     120 calls)
     cegterg      :    254.14s CPU    257.08s WALL (      56 calls)

     Called by sum_band:
     sum_band:bec :      0.05s CPU      0.05s WALL (      56 calls)
     addusdens    :      0.98s CPU      1.09s WALL (      14 calls)

     Called by *egterg:
     h_psi        :    117.51s CPU    117.75s WALL (     260 calls)
     s_psi        :     30.46s CPU     30.49s WALL (     260 calls)
     g_psi        :      1.06s CPU      1.07s WALL (     200 calls)
     cdiaghg      :     40.76s CPU     40.78s WALL (     252 calls)

     Called by h_psi:
     add_vuspsi   :     30.76s CPU     30.79s WALL (     260 calls)

     General routines
     calbec       :     47.08s CPU     47.12s WALL (     332 calls)
     fft          :      0.40s CPU      0.40s WALL (     195 calls)
     fftw         :     57.08s CPU     57.19s WALL (   57204 calls)
     davcio       :      0.01s CPU      0.01s WALL (       4 calls)
 
     Parallel routines
     fft_scatter  :     13.03s CPU     12.99s WALL (   57399 calls)
 
     PWSCF        :  5m 0.44s CPU     5m21.85s WALL

 
   This run was terminated on:  13:37:18   3Feb2016            

=------------------------------------------------------------------------------=
   JOB DONE.
=------------------------------------------------------------------------------=
