
     Program PWSCF v.5.3.0 (svn rev. 11974) starts on  3Feb2016 at 13:51:28 

     This program is part of the open-source Quantum ESPRESSO suite
     for quantum simulation of materials; please cite
         "P. Giannozzi et al., J. Phys.:Condens. Matter 21 395502 (2009);
          URL http://www.quantum-espresso.org", 
     in publications or presentations arising from this work. More details at
     http://www.quantum-espresso.org/quote

     Parallel version (MPI), running on    16 processors
     R & G space division:  proc/nbgrp/npool/nimage =      16
     Reading input from Si.in

     Current dimensions of program PWSCF are:
     Max number of different atomic species (ntypx) = 10
     Max number of k-points (npk) =  40000
     Max angular momentum in pseudopotentials (lmaxx) =  3
               file Si.pbe-n-kjpaw_psl.0.1.UPF: wavefunction(s)  3S renormalized

     Subspace diagonalization in iterative solution of the eigenvalue problem:
     one sub-group per k-point group (pool) will be used
     scalapack distributed-memory algorithm (size of sub-group:  2*  2 procs)

 
     Parallelization info
     --------------------
     sticks:   dense  smooth     PW     G-vecs:    dense   smooth      PW
     Min         424     424    109                26332    26332    3467
     Max         425     425    110                26336    26336    3472
     Sum        6785    6785   1757               421349   421349   55515
 


     bravais-lattice index     =            0
     lattice parameter (alat)  =      20.6591  a.u.
     unit-cell volume          =    8817.2783 (a.u.)^3
     number of atoms/cell      =           64
     number of atomic types    =            1
     number of electrons       =       256.00
     number of Kohn-Sham states=          154
     kinetic-energy cutoff     =      50.0000  Ry
     charge density cutoff     =     200.0000  Ry
     convergence threshold     =      1.0E-09
     mixing beta               =       0.7000
     number of iterations used =            8  plain     mixing
     Exchange-correlation      =  SLA  PW   PBX  PBC ( 1  4  3  4 0 0)

     celldm(1)=  20.659106  celldm(2)=   0.000000  celldm(3)=   0.000000
     celldm(4)=   0.000000  celldm(5)=   0.000000  celldm(6)=   0.000000

     crystal axes: (cart. coord. in units of alat)
               a(1) = (   1.000000   0.000000   0.000000 )  
               a(2) = (   0.000000   1.000000   0.000000 )  
               a(3) = (   0.000000   0.000000   1.000000 )  

     reciprocal axes: (cart. coord. in units 2 pi/alat)
               b(1) = (  1.000000  0.000000  0.000000 )  
               b(2) = (  0.000000  1.000000  0.000000 )  
               b(3) = (  0.000000  0.000000  1.000000 )  


     PseudoPot. # 1 for Si read from file:
     /home/togo/espresso/pseudo/Si.pbe-n-kjpaw_psl.0.1.UPF
     MD5 check sum: b9d333a40e496bef61db012f150758bf
     Pseudo is Projector augmented-wave + core cor, Zval =  4.0
     Generated using "atomic" code by A. Dal Corso  v.5.0.2 svn rev. 9415
     Shape of augmentation charge: PSQ
     Using radial grid of 1141 points,  4 beta functions with: 
                l(1) =   0
                l(2) =   0
                l(3) =   1
                l(4) =   1
     Q(r) pseudized with 0 coefficients 


     atomic species   valence    mass     pseudopotential
        Si             4.00    28.08550     Si( 1.00)

     No symmetry found



   Cartesian axes

     site n.     atom                  positions (alat units)
         1           Si  tau(   1) = (   0.4404043   0.4375000   0.4375000  )
         2           Si  tau(   2) = (   0.9375000   0.4375000   0.4375000  )
         3           Si  tau(   3) = (   0.4375000   0.9375000   0.4375000  )
         4           Si  tau(   4) = (   0.9375000   0.9375000   0.4375000  )
         5           Si  tau(   5) = (   0.4375000   0.4375000   0.9375000  )
         6           Si  tau(   6) = (   0.9375000   0.4375000   0.9375000  )
         7           Si  tau(   7) = (   0.4375000   0.9375000   0.9375000  )
         8           Si  tau(   8) = (   0.9375000   0.9375000   0.9375000  )
         9           Si  tau(   9) = (   0.4375000   0.1875000   0.1875000  )
        10           Si  tau(  10) = (   0.9375000   0.1875000   0.1875000  )
        11           Si  tau(  11) = (   0.4375000   0.6875000   0.1875000  )
        12           Si  tau(  12) = (   0.9375000   0.6875000   0.1875000  )
        13           Si  tau(  13) = (   0.4375000   0.1875000   0.6875000  )
        14           Si  tau(  14) = (   0.9375000   0.1875000   0.6875000  )
        15           Si  tau(  15) = (   0.4375000   0.6875000   0.6875000  )
        16           Si  tau(  16) = (   0.9375000   0.6875000   0.6875000  )
        17           Si  tau(  17) = (   0.1875000   0.4375000   0.1875000  )
        18           Si  tau(  18) = (   0.6875000   0.4375000   0.1875000  )
        19           Si  tau(  19) = (   0.1875000   0.9375000   0.1875000  )
        20           Si  tau(  20) = (   0.6875000   0.9375000   0.1875000  )
        21           Si  tau(  21) = (   0.1875000   0.4375000   0.6875000  )
        22           Si  tau(  22) = (   0.6875000   0.4375000   0.6875000  )
        23           Si  tau(  23) = (   0.1875000   0.9375000   0.6875000  )
        24           Si  tau(  24) = (   0.6875000   0.9375000   0.6875000  )
        25           Si  tau(  25) = (   0.1875000   0.1875000   0.4375000  )
        26           Si  tau(  26) = (   0.6875000   0.1875000   0.4375000  )
        27           Si  tau(  27) = (   0.1875000   0.6875000   0.4375000  )
        28           Si  tau(  28) = (   0.6875000   0.6875000   0.4375000  )
        29           Si  tau(  29) = (   0.1875000   0.1875000   0.9375000  )
        30           Si  tau(  30) = (   0.6875000   0.1875000   0.9375000  )
        31           Si  tau(  31) = (   0.1875000   0.6875000   0.9375000  )
        32           Si  tau(  32) = (   0.6875000   0.6875000   0.9375000  )
        33           Si  tau(  33) = (   0.0625000   0.0625000   0.0625000  )
        34           Si  tau(  34) = (   0.5625000   0.0625000   0.0625000  )
        35           Si  tau(  35) = (   0.0625000   0.5625000   0.0625000  )
        36           Si  tau(  36) = (   0.5625000   0.5625000   0.0625000  )
        37           Si  tau(  37) = (   0.0625000   0.0625000   0.5625000  )
        38           Si  tau(  38) = (   0.5625000   0.0625000   0.5625000  )
        39           Si  tau(  39) = (   0.0625000   0.5625000   0.5625000  )
        40           Si  tau(  40) = (   0.5625000   0.5625000   0.5625000  )
        41           Si  tau(  41) = (   0.0625000   0.3125000   0.3125000  )
        42           Si  tau(  42) = (   0.5625000   0.3125000   0.3125000  )
        43           Si  tau(  43) = (   0.0625000   0.8125000   0.3125000  )
        44           Si  tau(  44) = (   0.5625000   0.8125000   0.3125000  )
        45           Si  tau(  45) = (   0.0625000   0.3125000   0.8125000  )
        46           Si  tau(  46) = (   0.5625000   0.3125000   0.8125000  )
        47           Si  tau(  47) = (   0.0625000   0.8125000   0.8125000  )
        48           Si  tau(  48) = (   0.5625000   0.8125000   0.8125000  )
        49           Si  tau(  49) = (   0.3125000   0.0625000   0.3125000  )
        50           Si  tau(  50) = (   0.8125000   0.0625000   0.3125000  )
        51           Si  tau(  51) = (   0.3125000   0.5625000   0.3125000  )
        52           Si  tau(  52) = (   0.8125000   0.5625000   0.3125000  )
        53           Si  tau(  53) = (   0.3125000   0.0625000   0.8125000  )
        54           Si  tau(  54) = (   0.8125000   0.0595957   0.8125000  )
        55           Si  tau(  55) = (   0.3125000   0.5625000   0.8125000  )
        56           Si  tau(  56) = (   0.8125000   0.5625000   0.8125000  )
        57           Si  tau(  57) = (   0.3125000   0.3125000   0.0625000  )
        58           Si  tau(  58) = (   0.8125000   0.3125000   0.0625000  )
        59           Si  tau(  59) = (   0.3125000   0.8125000   0.0625000  )
        60           Si  tau(  60) = (   0.8125000   0.8125000   0.0625000  )
        61           Si  tau(  61) = (   0.3125000   0.3125000   0.5625000  )
        62           Si  tau(  62) = (   0.8125000   0.3125000   0.5625000  )
        63           Si  tau(  63) = (   0.3125000   0.8125000   0.5625000  )
        64           Si  tau(  64) = (   0.8125000   0.8125000   0.5625000  )

     number of k points=     4  gaussian smearing, width (Ry)=  0.0100
                       cart. coord. in units 2pi/alat
        k(    1) = (   0.2500000   0.2500000   0.2500000), wk =   0.5000000
        k(    2) = (  -0.2500000  -0.2500000   0.2500000), wk =   0.5000000
        k(    3) = (  -0.2500000   0.2500000  -0.2500000), wk =   0.5000000
        k(    4) = (   0.2500000  -0.2500000  -0.2500000), wk =   0.5000000

     Dense  grid:   421349 G-vectors     FFT dimensions: (  96,  96,  96)

     Largest allocated arrays     est. size (Mb)     dimensions
        Kohn-Sham Wavefunctions         7.73 Mb     (    3289,  154)
        NL pseudopotentials            25.70 Mb     (    3289,  512)
        Each V/rho on FFT grid          0.84 Mb     (   55296)
        Each G-vector array             0.20 Mb     (   26336)
        G-vector shells                 0.01 Mb     (    1719)
     Largest temporary arrays     est. size (Mb)     dimensions
        Auxiliary wavefunctions        30.91 Mb     (    3289,  616)
        Each subspace H/S matrix        1.45 Mb     (     308,  308)
        Each <psi_i|beta_j> matrix      1.20 Mb     (     512,  154)
        Arrays for rho mixing           6.75 Mb     (   55296,    8)

     Check: negative/imaginary core charge=   -0.000001    0.000000

     Initial potential from superposition of free atoms

     starting charge  255.96421, renormalised to  256.00000
     Starting wfc are  256 randomized atomic wfcs
     Checking if some PAW data can be deallocated... 

     total cpu time spent up to now is       11.5 secs

     per-process dynamical memory:   114.8 Mb

     Self-consistent Calculation

     iteration #  1     ecut=    50.00 Ry     beta=0.70
     Davidson diagonalization with overlap
     ethr =  1.00E-02,  avg # of iterations =  3.0

     Threshold (ethr) on eigenvalues was too large:
     Diagonalizing with lowered threshold

     Davidson diagonalization with overlap
     ethr =  7.00E-04,  avg # of iterations =  1.0

     total cpu time spent up to now is       71.7 secs

     total energy              =   -2990.45694559 Ry
     Harris-Foulkes estimate   =   -2990.87681830 Ry
     estimated scf accuracy    <       1.77322075 Ry

     iteration #  2     ecut=    50.00 Ry     beta=0.70
     Davidson diagonalization with overlap
     ethr =  6.93E-04,  avg # of iterations =  1.0

     total cpu time spent up to now is       85.7 secs

     total energy              =   -2990.52360729 Ry
     Harris-Foulkes estimate   =   -2990.52748164 Ry
     estimated scf accuracy    <       0.07631700 Ry

     iteration #  3     ecut=    50.00 Ry     beta=0.70
     Davidson diagonalization with overlap
     ethr =  2.98E-05,  avg # of iterations = 10.2

     total cpu time spent up to now is      116.4 secs

     total energy              =   -2990.53058724 Ry
     Harris-Foulkes estimate   =   -2990.53136969 Ry
     estimated scf accuracy    <       0.00195460 Ry

     iteration #  4     ecut=    50.00 Ry     beta=0.70
     Davidson diagonalization with overlap
     ethr =  7.64E-07,  avg # of iterations =  5.8

     total cpu time spent up to now is      156.7 secs

     total energy              =   -2990.53036643 Ry
     Harris-Foulkes estimate   =   -2990.53275127 Ry
     estimated scf accuracy    <       0.00765316 Ry

     iteration #  5     ecut=    50.00 Ry     beta=0.70
     Davidson diagonalization with overlap
     ethr =  7.64E-07,  avg # of iterations =  5.0

     total cpu time spent up to now is      181.9 secs

     total energy              =   -2990.53148880 Ry
     Harris-Foulkes estimate   =   -2990.53159799 Ry
     estimated scf accuracy    <       0.00030697 Ry

     iteration #  6     ecut=    50.00 Ry     beta=0.70
     Davidson diagonalization with overlap
     ethr =  1.20E-07,  avg # of iterations =  2.5

     total cpu time spent up to now is      200.1 secs

     total energy              =   -2990.53154454 Ry
     Harris-Foulkes estimate   =   -2990.53156127 Ry
     estimated scf accuracy    <       0.00004744 Ry

     iteration #  7     ecut=    50.00 Ry     beta=0.70
     Davidson diagonalization with overlap
     ethr =  1.85E-08,  avg # of iterations =  2.5

     total cpu time spent up to now is      218.5 secs

     total energy              =   -2990.53155328 Ry
     Harris-Foulkes estimate   =   -2990.53155498 Ry
     estimated scf accuracy    <       0.00000394 Ry

     iteration #  8     ecut=    50.00 Ry     beta=0.70
     Davidson diagonalization with overlap
     ethr =  1.54E-09,  avg # of iterations =  3.0

     total cpu time spent up to now is      240.1 secs

     total energy              =   -2990.53155437 Ry
     Harris-Foulkes estimate   =   -2990.53155456 Ry
     estimated scf accuracy    <       0.00000046 Ry

     iteration #  9     ecut=    50.00 Ry     beta=0.70
     Davidson diagonalization with overlap
     ethr =  1.78E-10,  avg # of iterations =  3.0

     total cpu time spent up to now is      259.3 secs

     total energy              =   -2990.53155438 Ry
     Harris-Foulkes estimate   =   -2990.53155448 Ry
     estimated scf accuracy    <       0.00000017 Ry

     iteration # 10     ecut=    50.00 Ry     beta=0.70
     Davidson diagonalization with overlap
     ethr =  6.74E-11,  avg # of iterations =  2.2

     total cpu time spent up to now is      276.2 secs

     total energy              =   -2990.53155436 Ry
     Harris-Foulkes estimate   =   -2990.53155441 Ry
     estimated scf accuracy    <       0.00000006 Ry

     iteration # 11     ecut=    50.00 Ry     beta=0.70
     Davidson diagonalization with overlap
     ethr =  2.29E-11,  avg # of iterations =  2.0

     total cpu time spent up to now is      293.5 secs

     total energy              =   -2990.53155437 Ry
     Harris-Foulkes estimate   =   -2990.53155437 Ry
     estimated scf accuracy    <          1.6E-09 Ry

     iteration # 12     ecut=    50.00 Ry     beta=0.70
     Davidson diagonalization with overlap
     ethr =  6.09E-13,  avg # of iterations =  3.0

     total cpu time spent up to now is      321.0 secs

     total energy              =   -2990.53155437 Ry
     Harris-Foulkes estimate   =   -2990.53155438 Ry
     estimated scf accuracy    <          1.3E-09 Ry

     iteration # 13     ecut=    50.00 Ry     beta=0.70
     Davidson diagonalization with overlap
     ethr =  5.16E-13,  avg # of iterations =  2.8

     total cpu time spent up to now is      339.7 secs

     End of self-consistent calculation

          k = 0.2500 0.2500 0.2500 ( 52563 PWs)   bands (ev):

    -5.6250  -5.1010  -5.0947  -5.0937  -4.6011  -4.5950  -4.5940  -4.1621
    -4.0674  -4.0615  -4.0601  -3.6575  -3.6483  -3.6467  -3.6466  -3.6440
    -3.6423  -3.4596  -3.4547  -3.4520  -2.9610  -2.9561  -2.9531  -2.5936
    -2.5895  -2.5860  -2.4298  -2.4217  -2.4210  -2.4205  -2.4173  -2.4159
    -0.8847  -0.8807  -0.8782  -0.8777  -0.8739  -0.8721  -0.7826  -0.7797
    -0.7760  -0.6633  -0.6620  -0.6561  -0.5887  -0.5775  -0.5748   0.1225
     0.2063   0.2093   0.2110   0.2113   0.2156   0.2201   1.0767   1.0843
     1.0878   1.4155   1.4182   1.4214   2.0248   2.0267   2.0283   2.0303
     2.0317   2.0334   2.0872   2.0891   2.0921   2.6365   2.6377   2.6401
     2.7396   2.7408   2.7431   2.7447   2.7475   2.7505   2.7962   2.7986
     2.8019   3.1013   3.1042   3.1074   3.1087   3.1102   3.1125   3.3712
     3.3731   3.3742   3.3847   3.3874   3.3906   3.7278   3.7341   3.7358
     3.7499   3.7537   3.7567   3.8384   3.8405   3.8432   4.1026   4.1072
     4.1134   4.1146   4.1149   4.1164   4.1524   4.1548   4.1579   4.4090
     4.4712   4.4739   4.4750   4.7139   4.7162   4.7194   4.7676   4.7763
     4.7783   4.9349   4.9400   5.2428   5.2460   5.2503   5.7235   5.7293
     6.9346   6.9386   6.9405   7.3738   7.3786   7.3802   7.6002   7.8602
     7.8644   7.8658   7.9872   7.9895   7.9940   8.1495   8.1516   8.1543
     8.1670   8.1707   8.1722   8.3940   8.3952   8.4015   8.4024   8.4034
     8.4064   8.4508

          k =-0.2500-0.2500 0.2500 ( 52563 PWs)   bands (ev):

    -5.6251  -5.0989  -5.0978  -5.0919  -4.5995  -4.5983  -4.5926  -4.1643
    -4.0664  -4.0651  -4.0596  -3.6519  -3.6499  -3.6475  -3.6472  -3.6459
    -3.6371  -3.4577  -3.4546  -3.4499  -2.9642  -2.9609  -2.9562  -2.5923
    -2.5892  -2.5853  -2.4257  -2.4244  -2.4211  -2.4205  -2.4196  -2.4114
    -0.8850  -0.8825  -0.8784  -0.8780  -0.8766  -0.8727  -0.7849  -0.7805
    -0.7781  -0.6679  -0.6624  -0.6614  -0.5776  -0.5747  -0.5629   0.1300
     0.2017   0.2057   0.2101   0.2105   0.2123   0.2153   1.0829   1.0865
     1.0939   1.4153   1.4184   1.4211   2.0247   2.0264   2.0280   2.0300
     2.0317   2.0330   2.0845   2.0873   2.0899   2.6401   2.6424   2.6435
     2.7354   2.7376   2.7416   2.7434   2.7457   2.7466   2.7920   2.7943
     2.7969   3.1028   3.1050   3.1064   3.1077   3.1107   3.1138   3.3689
     3.3696   3.3726   3.3825   3.3854   3.3875   3.7336   3.7350   3.7406
     3.7561   3.7597   3.7636   3.8357   3.8384   3.8409   4.1121   4.1137
     4.1139   4.1152   4.1213   4.1255   4.1495   4.1524   4.1554   4.4170
     4.4669   4.4679   4.4715   4.7095   4.7128   4.7152   4.7790   4.7813
     4.7908   4.9325   4.9375   5.2370   5.2412   5.2443   5.7188   5.7244
     6.9318   6.9338   6.9380   7.3732   7.3749   7.3798   7.5972   7.8578
     7.8593   7.8635   7.9891   7.9938   7.9963   8.1482   8.1505   8.1537
     8.1664   8.1678   8.1713   8.3970   8.4017   8.4024   8.4034   8.4095
     8.4105   8.4462

          k =-0.2500 0.2500-0.2500 ( 52563 PWs)   bands (ev):

    -5.6250  -5.0990  -5.0963  -5.0938  -4.5995  -4.5967  -4.5941  -4.1631
    -4.0661  -4.0633  -4.0608  -3.6539  -3.6489  -3.6471  -3.6469  -3.6451
    -3.6405  -3.4589  -3.4548  -3.4505  -2.9617  -2.9585  -2.9555  -2.5931
    -2.5892  -2.5857  -2.4281  -2.4238  -2.4208  -2.4207  -2.4180  -2.4131
    -0.8885  -0.8817  -0.8782  -0.8780  -0.8748  -0.8691  -0.7839  -0.7803
    -0.7768  -0.6674  -0.6622  -0.6569  -0.5776  -0.5758  -0.5747   0.1263
     0.2014   0.2073   0.2106   0.2109   0.2142   0.2201   1.0817   1.0854
     1.0890   1.4145   1.4184   1.4222   2.0240   2.0272   2.0290   2.0295
     2.0310   2.0342   2.0857   2.0882   2.0908   2.6383   2.6401   2.6418
     2.7375   2.7396   2.7432   2.7434   2.7462   2.7487   2.7925   2.7966
     2.8006   3.1012   3.1063   3.1076   3.1076   3.1089   3.1139   3.3687
     3.3720   3.3740   3.3826   3.3861   3.3904   3.7312   3.7344   3.7372
     3.7541   3.7570   3.7593   3.8360   3.8394   3.8432   4.1090   4.1119
     4.1141   4.1143   4.1167   4.1192   4.1498   4.1534   4.1581   4.4130
     4.4677   4.4708   4.4743   4.7104   4.7144   4.7183   4.7776   4.7788
     4.7810   4.9319   4.9406   5.2384   5.2433   5.2490   5.7191   5.7289
     6.9324   6.9363   6.9400   7.3712   7.3768   7.3822   7.5987   7.8570
     7.8618   7.8666   7.9877   7.9917   7.9956   8.1482   8.1519   8.1541
     8.1656   8.1689   8.1732   8.3953   8.4008   8.4024   8.4026   8.4039
     8.4085   8.4486

          k = 0.2500-0.2500-0.2500 ( 52563 PWs)   bands (ev):

    -5.6250  -5.0999  -5.0963  -5.0928  -4.6004  -4.5967  -4.5931  -4.1631
    -4.0666  -4.0634  -4.0601  -3.6566  -3.6491  -3.6469  -3.6469  -3.6450
    -3.6377  -3.4590  -3.4548  -3.4505  -2.9618  -2.9586  -2.9553  -2.5931
    -2.5892  -2.5857  -2.4299  -2.4226  -2.4208  -2.4208  -2.4188  -2.4115
    -0.8870  -0.8796  -0.8781  -0.8780  -0.8774  -0.8703  -0.7837  -0.7804
    -0.7767  -0.6673  -0.6624  -0.6568  -0.5819  -0.5761  -0.5702   0.1262
     0.2020   0.2102   0.2107   0.2108   0.2114   0.2197   1.0808   1.0854
     1.0899   1.4144   1.4184   1.4222   2.0259   2.0268   2.0278   2.0305
     2.0315   2.0324   2.0857   2.0881   2.0906   2.6379   2.6400   2.6424
     2.7373   2.7405   2.7429   2.7436   2.7456   2.7489   2.7936   2.7965
     2.7996   3.1010   3.1066   3.1072   3.1080   3.1086   3.1141   3.3698
     3.3718   3.3733   3.3823   3.3866   3.3900   3.7303   3.7346   3.7387
     3.7522   3.7565   3.7610   3.8363   3.8395   3.8428   4.1058   4.1122
     4.1139   4.1145   4.1162   4.1225   4.1502   4.1535   4.1577   4.4129
     4.4687   4.4713   4.4731   4.7109   4.7145   4.7179   4.7748   4.7787
     4.7835   4.9319   4.9406   5.2391   5.2434   5.2482   5.7191   5.7289
     6.9330   6.9360   6.9396   7.3733   7.3767   7.3802   7.5987   7.8585
     7.8616   7.8652   7.9876   7.9918   7.9956   8.1505   8.1516   8.1525
     8.1671   8.1688   8.1713   8.3937   8.3995   8.4023   8.4026   8.4055
     8.4102   8.4485

     the Fermi energy is     6.3279 ev

!    total energy              =   -2990.53155438 Ry
     Harris-Foulkes estimate   =   -2990.53155437 Ry
     estimated scf accuracy    <          4.9E-10 Ry

     total all-electron energy =    -37124.667108 Ry

     The total energy is the sum of the following terms:

     one-electron contribution =     178.60658861 Ry
     hartree contribution      =      35.70141180 Ry
     xc contribution           =    -391.44199669 Ry
     ewald contribution        =    -534.00625204 Ry
     one-center paw contrib.   =   -2279.39130605 Ry
     smearing contrib. (-TS)   =       0.00000000 Ry

     convergence has been achieved in  13 iterations

     Forces acting on atoms (Ry/au):

     atom    1 type  1   force =    -0.01585956    0.00002201    0.00003192
     atom    2 type  1   force =     0.00004919   -0.00002646    0.00002538
     atom    3 type  1   force =     0.00008238   -0.00025586    0.00002809
     atom    4 type  1   force =     0.00004324    0.00006047    0.00003912
     atom    5 type  1   force =     0.00007941   -0.00002637    0.00002648
     atom    6 type  1   force =     0.00003135    0.00001226    0.00003778
     atom    7 type  1   force =    -0.00043705    0.00006012    0.00004987
     atom    8 type  1   force =     0.00273036   -0.00392892    0.00270502
     atom    9 type  1   force =    -0.00055551   -0.00013781    0.00014171
     atom   10 type  1   force =    -0.00005183    0.00006779    0.00004610
     atom   11 type  1   force =    -0.00055495    0.00013081   -0.00007891
     atom   12 type  1   force =    -0.00002810   -0.00001827    0.00001649
     atom   13 type  1   force =    -0.00056136   -0.00005078    0.00016132
     atom   14 type  1   force =    -0.00248096   -0.00382187    0.00249225
     atom   15 type  1   force =    -0.00055548   -0.00014264   -0.00008476
     atom   16 type  1   force =    -0.00003727    0.00000339    0.00002902
     atom   17 type  1   force =     0.00020113   -0.00008808    0.00019514
     atom   18 type  1   force =     0.00021051   -0.00014029   -0.00025847
     atom   19 type  1   force =     0.00001525   -0.00026578   -0.00010551
     atom   20 type  1   force =    -0.00000758    0.00005104    0.00003748
     atom   21 type  1   force =     0.00020738    0.00008370   -0.00025336
     atom   22 type  1   force =     0.00019917    0.00012597    0.00019536
     atom   23 type  1   force =     0.00000407    0.00006994    0.00002762
     atom   24 type  1   force =    -0.00266255   -0.00391929   -0.00278146
     atom   25 type  1   force =     0.00025969   -0.00002537   -0.00013682
     atom   26 type  1   force =     0.00028917   -0.00017465   -0.00015080
     atom   27 type  1   force =     0.00026292   -0.00020544    0.00007956
     atom   28 type  1   force =     0.00026627    0.00020472    0.00008698
     atom   29 type  1   force =     0.00008011   -0.00001860   -0.00006180
     atom   30 type  1   force =     0.00252412   -0.00373520   -0.00249114
     atom   31 type  1   force =     0.00006994    0.00004879   -0.00001971
     atom   32 type  1   force =     0.00008018   -0.00006421   -0.00002839
     atom   33 type  1   force =    -0.00013514    0.00055915   -0.00008390
     atom   34 type  1   force =     0.00014668    0.00055197    0.00013685
     atom   35 type  1   force =     0.00001771    0.00002701    0.00001487
     atom   36 type  1   force =    -0.00007065    0.00004902    0.00004800
     atom   37 type  1   force =     0.00013591    0.00054835   -0.00008180
     atom   38 type  1   force =     0.00005339    0.00056704    0.00016439
     atom   39 type  1   force =    -0.00000212    0.00003788    0.00002938
     atom   40 type  1   force =     0.00393788    0.00270512    0.00271481
     atom   41 type  1   force =     0.00006476   -0.00008118   -0.00002888
     atom   42 type  1   force =     0.00385169   -0.00274807   -0.00271527
     atom   43 type  1   force =    -0.00004953   -0.00006750   -0.00001717
     atom   44 type  1   force =     0.00001543   -0.00008152   -0.00005964
     atom   45 type  1   force =    -0.00020087   -0.00025867    0.00008514
     atom   46 type  1   force =     0.00016650   -0.00028136   -0.00014842
     atom   47 type  1   force =     0.00021228   -0.00026896    0.00008257
     atom   48 type  1   force =     0.00002247   -0.00026627   -0.00014185
     atom   49 type  1   force =    -0.00005856    0.00043725    0.00005167
     atom   50 type  1   force =     0.00002798   -0.00008147    0.00002896
     atom   51 type  1   force =     0.00381250   -0.00250599    0.00248109
     atom   52 type  1   force =    -0.00001304   -0.00003071    0.00003757
     atom   53 type  1   force =     0.00025225   -0.00008237    0.00002761
     atom   54 type  1   force =    -0.00002057    0.01585979    0.00003011
     atom   55 type  1   force =    -0.00005857   -0.00004456    0.00003753
     atom   56 type  1   force =     0.00002810   -0.00005178    0.00002721
     atom   57 type  1   force =    -0.00004869    0.00000933    0.00003894
     atom   58 type  1   force =     0.00013765   -0.00020289   -0.00025493
     atom   59 type  1   force =     0.00026214   -0.00001512   -0.00010435
     atom   60 type  1   force =     0.00009257   -0.00020727    0.00020192
     atom   61 type  1   force =     0.00380276    0.00243881   -0.00255809
     atom   62 type  1   force =    -0.00012267   -0.00019416    0.00019028
     atom   63 type  1   force =    -0.00006834   -0.00000553    0.00002535
     atom   64 type  1   force =    -0.00008555   -0.00021050   -0.00026153

     Total force =     0.027133     Total SCF correction =     0.000044

     Writing output data file pwscf.save
 
     init_run     :      8.90s CPU     11.28s WALL (       1 calls)
     electrons    :    303.40s CPU    328.39s WALL (       1 calls)
     forces       :      4.31s CPU      4.42s WALL (       1 calls)

     Called by init_run:
     wfcinit      :      8.28s CPU      8.38s WALL (       1 calls)
     potinit      :      0.25s CPU      0.26s WALL (       1 calls)

     Called by electrons:
     c_bands      :    263.85s CPU    284.42s WALL (      14 calls)
     sum_band     :     24.79s CPU     25.87s WALL (      14 calls)
     v_of_rho     :      0.75s CPU      0.75s WALL (      14 calls)
     newd         :      1.40s CPU      1.43s WALL (      14 calls)
     PAW_pot      :      2.32s CPU      2.32s WALL (      14 calls)
     mix_rho      :      0.40s CPU      0.40s WALL (      14 calls)

     Called by c_bands:
     init_us_2    :      2.43s CPU      2.45s WALL (     120 calls)
     cegterg      :    254.78s CPU    261.62s WALL (      56 calls)

     Called by sum_band:
     sum_band:bec :      0.05s CPU      0.05s WALL (      56 calls)
     addusdens    :      1.45s CPU      1.70s WALL (      14 calls)

     Called by *egterg:
     h_psi        :    118.46s CPU    118.85s WALL (     248 calls)
     s_psi        :     30.39s CPU     30.47s WALL (     248 calls)
     g_psi        :      1.08s CPU      1.09s WALL (     188 calls)
     cdiaghg      :     35.58s CPU     35.61s WALL (     240 calls)

     Called by h_psi:
     add_vuspsi   :     30.11s CPU     30.16s WALL (     248 calls)

     General routines
     calbec       :     47.43s CPU     47.59s WALL (     320 calls)
     fft          :      0.69s CPU      0.70s WALL (     195 calls)
     fftw         :     57.71s CPU     58.10s WALL (   57138 calls)
     davcio       :      0.00s CPU      0.04s WALL (       4 calls)
 
     Parallel routines
     fft_scatter  :     16.90s CPU     16.36s WALL (   57333 calls)
 
     PWSCF        :  5m16.94s CPU     5m53.46s WALL

 
   This run was terminated on:  13:57:22   3Feb2016            

=------------------------------------------------------------------------------=
   JOB DONE.
=------------------------------------------------------------------------------=
