<?xml version="1.0" encoding="ISO-8859-1"?>
<modeling>
 <generator>
  <i name="program" type="string">vasp </i>
  <i name="version" type="string">5.4.1  </i>
  <i name="subversion" type="string">05Feb16 (build Mar 26 2016 11:58:25) complex                          parallel </i>
  <i name="platform" type="string">IFC91_ompi </i>
  <i name="date" type="string">2017 03 12 </i>
  <i name="time" type="string">12:17:26 </i>
 </generator>
 <incar>
  <i type="string" name="PREC">accurate</i>
  <i type="int" name="IALGO">    38</i>
  <i type="logical" name="ADDGRID"> T  </i>
  <i type="int" name="NELMIN">     5</i>
  <i type="int" name="IBRION">    -1</i>
  <i name="EDIFF">      0.00000001</i>
  <i name="ENCUT">    300.00000000</i>
  <i type="logical" name="LREAL"> F  </i>
  <i type="int" name="ISMEAR">     0</i>
  <i name="SIGMA">      0.05000000</i>
  <i type="logical" name="LWAVE"> F  </i>
  <i type="logical" name="LCHARG"> F  </i>
  <v type="int" name="KPOINT_BSE">    -1     0     0     0</v>
 </incar>
 <kpoints>
  <generation param="Monkhorst-Pack">
   <v type="int" name="divisions">       2        2        2 </v>
   <v name="usershift">      0.00000000       0.00000000       0.00000000 </v>
   <v name="genvec1">      0.50000000       0.00000000       0.00000000 </v>
   <v name="genvec2">      0.00000000       0.50000000       0.00000000 </v>
   <v name="genvec3">      0.00000000       0.00000000       0.50000000 </v>
   <v name="shift">      0.50000000       0.50000000       0.50000000 </v>
  </generation>
  <varray name="kpointlist" >
   <v>       0.25000000       0.25000000       0.25000000 </v>
   <v>      -0.25000000       0.25000000       0.25000000 </v>
   <v>       0.25000000      -0.25000000       0.25000000 </v>
  </varray>
  <varray name="weights" >
   <v>       0.25000000 </v>
   <v>       0.25000000 </v>
   <v>       0.50000000 </v>
  </varray>
 </kpoints>
 <parameters>
  <separator name="general" >
   <i type="string" name="SYSTEM">unknown system</i>
   <i type="logical" name="LCOMPAT"> F  </i>
  </separator>
  <separator name="electronic" >
   <i type="string" name="PREC">accura</i>
   <i name="ENMAX">    300.00000000</i>
   <i name="ENAUG">    322.06900000</i>
   <i name="EDIFF">      0.00000001</i>
   <i type="int" name="IALGO">    38</i>
   <i type="int" name="IWAVPR">    10</i>
   <i type="int" name="NBANDS">   164</i>
   <i name="NELECT">    256.00000000</i>
   <i type="int" name="TURBO">     0</i>
   <i type="int" name="IRESTART">     0</i>
   <i type="int" name="NREBOOT">     0</i>
   <i type="int" name="NMIN">     0</i>
   <i name="EREF">      0.00000000</i>
   <separator name="electronic smearing" >
    <i type="int" name="ISMEAR">     0</i>
    <i name="SIGMA">      0.05000000</i>
    <i name="KSPACING">      0.50000000</i>
    <i type="logical" name="KGAMMA"> T  </i>
   </separator>
   <separator name="electronic projectors" >
    <i type="logical" name="LREAL"> F  </i>
    <v name="ROPT">      0.00000000</v>
    <i type="int" name="LMAXPAW">  -100</i>
    <i type="int" name="LMAXMIX">     2</i>
    <i type="logical" name="NLSPLINE"> F  </i>
   </separator>
   <separator name="electronic startup" >
    <i type="int" name="ISTART">     0</i>
    <i type="int" name="ICHARG">     2</i>
    <i type="int" name="INIWAV">     1</i>
   </separator>
   <separator name="electronic spin" >
    <i type="int" name="ISPIN">     1</i>
    <i type="logical" name="LNONCOLLINEAR"> F  </i>
    <v name="MAGMOM">      1.00000000      1.00000000      1.00000000      1.00000000      1.00000000      1.00000000      1.00000000      1.00000000      1.00000000      1.00000000      1.00000000      1.00000000      1.00000000      1.00000000      1.00000000      1.00000000      1.00000000      1.00000000      1.00000000      1.00000000
      1.00000000      1.00000000      1.00000000      1.00000000      1.00000000      1.00000000      1.00000000      1.00000000      1.00000000      1.00000000      1.00000000      1.00000000      1.00000000      1.00000000      1.00000000      1.00000000      1.00000000      1.00000000      1.00000000      1.00000000
      1.00000000      1.00000000      1.00000000      1.00000000      1.00000000      1.00000000      1.00000000      1.00000000      1.00000000      1.00000000      1.00000000      1.00000000      1.00000000      1.00000000      1.00000000      1.00000000      1.00000000      1.00000000      1.00000000      1.00000000
      1.00000000      1.00000000      1.00000000      1.00000000</v>
    <i name="NUPDOWN">     -1.00000000</i>
    <i type="logical" name="LSORBIT"> F  </i>
    <v name="SAXIS">      0.00000000      0.00000000      1.00000000</v>
    <i type="logical" name="LSPIRAL"> F  </i>
    <v name="QSPIRAL">      0.00000000      0.00000000      0.00000000</v>
    <i type="logical" name="LZEROZ"> F  </i>
   </separator>
   <separator name="electronic exchange-correlation" >
    <i type="logical" name="LASPH"> F  </i>
    <i type="logical" name="LMETAGGA"> F  </i>
   </separator>
   <separator name="electronic convergence" >
    <i type="int" name="NELM">    60</i>
    <i type="int" name="NELMDL">    -5</i>
    <i type="int" name="NELMIN">     5</i>
    <i name="ENINI">    300.00000000</i>
    <separator name="electronic convergence detail" >
     <i type="logical" name="LDIAG"> T  </i>
     <i type="logical" name="LSUBROT"> F  </i>
     <i name="WEIMIN">      0.00000000</i>
     <i name="EBREAK">      0.00000000</i>
     <i name="DEPER">      0.30000000</i>
     <i type="int" name="NRMM">     4</i>
     <i name="TIME">      0.40000000</i>
    </separator>
   </separator>
   <separator name="electronic mixer" >
    <i name="AMIX">      0.40000000</i>
    <i name="BMIX">      1.00000000</i>
    <i name="AMIN">      0.10000000</i>
    <i name="AMIX_MAG">      1.60000000</i>
    <i name="BMIX_MAG">      1.00000000</i>
    <separator name="electronic mixer details" >
     <i type="int" name="IMIX">     4</i>
     <i type="logical" name="MIXFIRST"> F  </i>
     <i type="int" name="MAXMIX">   -45</i>
     <i name="WC">    100.00000000</i>
     <i type="int" name="INIMIX">     1</i>
     <i type="int" name="MIXPRE">     1</i>
     <i type="int" name="MREMOVE">     5</i>
    </separator>
   </separator>
   <separator name="electronic dipolcorrection" >
    <i type="logical" name="LDIPOL"> F  </i>
    <i type="logical" name="LMONO"> F  </i>
    <i type="int" name="IDIPOL">     0</i>
    <i name="EPSILON">      1.00000000</i>
    <v name="DIPOL">   -100.00000000   -100.00000000   -100.00000000</v>
    <i name="EFIELD">      0.00000000</i>
   </separator>
  </separator>
  <separator name="grids" >
   <i type="int" name="NGX">    64</i>
   <i type="int" name="NGY">    64</i>
   <i type="int" name="NGZ">    64</i>
   <i type="int" name="NGXF">   128</i>
   <i type="int" name="NGYF">   128</i>
   <i type="int" name="NGZF">   128</i>
   <i type="logical" name="ADDGRID"> T  </i>
  </separator>
  <separator name="ionic" >
   <i type="int" name="NSW">     0</i>
   <i type="int" name="IBRION">    -1</i>
   <i type="int" name="ISIF">     2</i>
   <i name="PSTRESS">      0.00000000</i>
   <i name="EDIFFG">      0.00000010</i>
   <i type="int" name="NFREE">     0</i>
   <i name="POTIM">      0.50000000</i>
   <i name="SMASS">     -3.00000000</i>
   <i name="SCALEE">      1.00000000</i>
  </separator>
  <separator name="ionic md" >
   <i name="TEBEG">      0.00010000</i>
   <i name="TEEND">      0.00010000</i>
   <i type="int" name="NBLOCK">     1</i>
   <i type="int" name="KBLOCK">     1</i>
   <i type="int" name="NPACO">   256</i>
   <i name="APACO">     16.00000000</i>
  </separator>
  <separator name="symmetry" >
   <i type="int" name="ISYM">     2</i>
   <i name="SYMPREC">      0.00001000</i>
  </separator>
  <separator name="dos" >
   <i type="logical" name="LORBIT"> F  </i>
   <v name="RWIGS">     -1.00000000</v>
   <i type="int" name="NEDOS">   301</i>
   <i name="EMIN">     10.00000000</i>
   <i name="EMAX">    -10.00000000</i>
   <i name="EFERMI">      0.00000000</i>
  </separator>
  <separator name="writing" >
   <i type="int" name="NWRITE">     2</i>
   <i type="logical" name="LWAVE"> F  </i>
   <i type="logical" name="LCHARG"> F  </i>
   <i type="logical" name="LPARD"> F  </i>
   <i type="logical" name="LVTOT"> F  </i>
   <i type="logical" name="LVHAR"> F  </i>
   <i type="logical" name="LELF"> F  </i>
   <i type="logical" name="LOPTICS"> F  </i>
   <v name="STM">      0.00000000      0.00000000      0.00000000      0.00000000      0.00000000      0.00000000      0.00000000</v>
  </separator>
  <separator name="performance" >
   <i type="int" name="NPAR">     4</i>
   <i type="int" name="NSIM">     4</i>
   <i type="int" name="NBLK">    -1</i>
   <i type="logical" name="LPLANE"> T  </i>
   <i type="logical" name="LSCALAPACK"> T  </i>
   <i type="logical" name="LSCAAWARE"> F  </i>
   <i type="logical" name="LSCALU"> F  </i>
   <i type="logical" name="LASYNC"> F  </i>
   <i type="logical" name="LORBITALREAL"> F  </i>
  </separator>
  <separator name="miscellaneous" >
   <i type="int" name="IDIOT">     3</i>
   <i type="logical" name="LMUSIC"> F  </i>
   <v name="POMASS">     28.08500000</v>
   <v name="DARWINR">      0.00000000</v>
   <v name="DARWINV">      1.00000000</v>
   <i type="logical" name="LCORR"> T  </i>
  </separator>
  <i type="logical" name="GGA_COMPAT"> T  </i>
  <i type="logical" name="LBERRY"> F  </i>
  <i type="int" name="ICORELEVEL">     0</i>
  <i type="logical" name="LDAU"> F  </i>
  <i type="int" name="I_CONSTRAINED_M">     0</i>
  <separator name="electronic exchange-correlation" >
   <i type="string" name="GGA">--</i>
   <i type="int" name="VOSKOWN">     0</i>
   <i type="logical" name="LHFCALC"> F  </i>
   <i type="string" name="PRECFOCK"></i>
   <i type="logical" name="LSYMGRAD"> F  </i>
   <i type="logical" name="LHFONE"> F  </i>
   <i type="logical" name="LRHFCALC"> F  </i>
   <i type="logical" name="LTHOMAS"> F  </i>
   <i type="logical" name="LMODELHF"> F  </i>
   <i name="ENCUT4O">     -1.00000000</i>
   <i type="int" name="EXXOEP">     0</i>
   <i type="int" name="FOURORBIT">     0</i>
   <i name="AEXX">      0.00000000</i>
   <i name="HFALPHA">      0.00000000</i>
   <i name="MCALPHA">      0.00000000</i>
   <i name="ALDAX">      1.00000000</i>
   <i name="AGGAX">      1.00000000</i>
   <i name="ALDAC">      1.00000000</i>
   <i name="AGGAC">      1.00000000</i>
   <i type="int" name="NKREDX">     1</i>
   <i type="int" name="NKREDY">     1</i>
   <i type="int" name="NKREDZ">     1</i>
   <i type="logical" name="SHIFTRED"> F  </i>
   <i type="logical" name="ODDONLY"> F  </i>
   <i type="logical" name="EVENONLY"> F  </i>
   <i type="int" name="LMAXFOCK">     0</i>
   <i type="int" name="NMAXFOCKAE">     0</i>
   <i type="logical" name="LFOCKAEDFT"> F  </i>
   <i name="HFSCREEN">      0.00000000</i>
   <i name="HFSCREENC">      0.00000000</i>
   <i type="int" name="NBANDSGWLOW">     0</i>
  </separator>
  <separator name="vdW DFT" >
   <i type="logical" name="LUSE_VDW"> F  </i>
   <i name="Zab_VDW">     -0.84910000</i>
   <i name="PARAM1">      0.12340000</i>
   <i name="PARAM2">      1.00000000</i>
   <i name="PARAM3">      0.00000000</i>
  </separator>
  <separator name="model GW" >
   <i type="int" name="MODEL_GW">     0</i>
   <i name="MODEL_EPS0">     12.24990743</i>
   <i name="MODEL_ALPHA">      1.00000000</i>
  </separator>
  <separator name="linear response parameters" >
   <i type="logical" name="LEPSILON"> F  </i>
   <i type="logical" name="LRPA"> F  </i>
   <i type="logical" name="LNABLA"> F  </i>
   <i type="logical" name="LVEL"> F  </i>
   <i type="int" name="KINTER">     0</i>
   <i name="CSHIFT">      0.10000000</i>
   <i name="OMEGAMAX">     -1.00000000</i>
   <i name="DEG_THRESHOLD">      0.00200000</i>
  </separator>
  <separator name="orbital magnetization" >
   <i type="logical" name="NUCIND"> F  </i>
   <v name="MAGPOS">      0.00000000      0.00000000      0.00000000</v>
   <i type="logical" name="LNICSALL"> T  </i>
   <i type="logical" name="ORBITALMAG"> F  </i>
   <i type="logical" name="LMAGBLOCH"> F  </i>
   <i type="logical" name="LCHIMAG"> F  </i>
   <i type="logical" name="LGAUGE"> T  </i>
   <i type="int" name="MAGATOM">     0</i>
   <v name="MAGDIPOL">      0.00000000      0.00000000      0.00000000</v>
   <v name="AVECCONST">      0.00000000      0.00000000      0.00000000</v>
  </separator>
  <separator name="response functions" >
   <i type="logical" name="LADDER"> F  </i>
   <i type="logical" name="LFXC"> F  </i>
   <i type="logical" name="LHARTREE"> T  </i>
   <i type="int" name="IBSE">     0</i>
   <v type="int" name="KPOINT">    -1     0     0     0</v>
   <i type="logical" name="LTCTE"> F  </i>
   <i type="logical" name="LTETE"> F  </i>
   <i type="logical" name="LTRIPLET"> F  </i>
   <i type="logical" name="LFXCEPS"> F  </i>
   <i type="logical" name="LFXHEG"> F  </i>
   <i type="int" name="NATURALO">     0</i>
   <i type="logical" name="L2ORDER"> F  </i>
   <i type="logical" name="LUSEW"> F  </i>
   <i name="ENCUTGW">     -2.00000000</i>
   <i name="ENCUTGWSOFT">     -2.00000000</i>
   <i name="ENCUTLF">     -1.00000000</i>
   <i type="int" name="LMAXMP2">    -1</i>
   <i name="SCISSOR">      0.00000000</i>
   <i type="int" name="NOMEGA">     0</i>
   <i type="int" name="NOMEGAR">     0</i>
   <i type="int" name="NBANDSGW">    -1</i>
   <i type="int" name="NBANDSO">    -1</i>
   <i type="int" name="NBANDSV">    -1</i>
   <i type="int" name="NELM">     1</i>
   <i type="int" name="NELMHF">     1</i>
   <i type="int" name="DIM">     3</i>
   <i type="int" name="ANTIRES">     0</i>
   <i name="OMEGAMAX">    -30.00000000</i>
   <i name="OMEGAMIN">    -30.00000000</i>
   <i name="OMEGATL">   -200.00000000</i>
   <i type="int" name="OMEGAGRID">     0</i>
   <i name="CSHIFT">     -0.10000000</i>
   <i type="logical" name="SELFENERGY"> F  </i>
   <i type="logical" name="LSPECTRAL"> F  </i>
   <i type="logical" name="LSPECTRALGW"> F  </i>
   <i type="logical" name="LSINGLES"> F  </i>
   <i type="logical" name="LFERMIGW"> F  </i>
   <i type="logical" name="ODDONLYGW"> F  </i>
   <i type="logical" name="EVENONLYGW"> F  </i>
   <i type="int" name="NKREDLFX">     1</i>
   <i type="int" name="NKREDLFY">     1</i>
   <i type="int" name="NKREDLFZ">     1</i>
   <i type="int" name="MAXMEM">  1800</i>
   <i type="int" name="TELESCOPE">     0</i>
   <i type="int" name="TAUPAR">     1</i>
   <i type="int" name="OMEGAPAR">    -1</i>
   <i name="LAMBDA">      1.00000000</i>
  </separator>
  <separator name="External order field" >
   <i name="OFIELD_KAPPA">      0.00000000</i>
   <v name="OFIELD_K">      0.00000000      0.00000000      0.00000000</v>
   <i name="OFIELD_Q6_NEAR">      0.00000000</i>
   <i name="OFIELD_Q6_FAR">      0.00000000</i>
   <i name="OFIELD_A">      0.00000000</i>
  </separator>
 </parameters>
 <atominfo>
  <atoms>      64 </atoms>
  <types>       1 </types>
  <array name="atoms" >
   <dimension dim="1">ion</dimension>
   <field type="string">element</field>
   <field type="int">atomtype</field>
   <set>
    <rc><c>Si</c><c>   1</c></rc>
    <rc><c>Si</c><c>   1</c></rc>
    <rc><c>Si</c><c>   1</c></rc>
    <rc><c>Si</c><c>   1</c></rc>
    <rc><c>Si</c><c>   1</c></rc>
    <rc><c>Si</c><c>   1</c></rc>
    <rc><c>Si</c><c>   1</c></rc>
    <rc><c>Si</c><c>   1</c></rc>
    <rc><c>Si</c><c>   1</c></rc>
    <rc><c>Si</c><c>   1</c></rc>
    <rc><c>Si</c><c>   1</c></rc>
    <rc><c>Si</c><c>   1</c></rc>
    <rc><c>Si</c><c>   1</c></rc>
    <rc><c>Si</c><c>   1</c></rc>
    <rc><c>Si</c><c>   1</c></rc>
    <rc><c>Si</c><c>   1</c></rc>
    <rc><c>Si</c><c>   1</c></rc>
    <rc><c>Si</c><c>   1</c></rc>
    <rc><c>Si</c><c>   1</c></rc>
    <rc><c>Si</c><c>   1</c></rc>
    <rc><c>Si</c><c>   1</c></rc>
    <rc><c>Si</c><c>   1</c></rc>
    <rc><c>Si</c><c>   1</c></rc>
    <rc><c>Si</c><c>   1</c></rc>
    <rc><c>Si</c><c>   1</c></rc>
    <rc><c>Si</c><c>   1</c></rc>
    <rc><c>Si</c><c>   1</c></rc>
    <rc><c>Si</c><c>   1</c></rc>
    <rc><c>Si</c><c>   1</c></rc>
    <rc><c>Si</c><c>   1</c></rc>
    <rc><c>Si</c><c>   1</c></rc>
    <rc><c>Si</c><c>   1</c></rc>
    <rc><c>Si</c><c>   1</c></rc>
    <rc><c>Si</c><c>   1</c></rc>
    <rc><c>Si</c><c>   1</c></rc>
    <rc><c>Si</c><c>   1</c></rc>
    <rc><c>Si</c><c>   1</c></rc>
    <rc><c>Si</c><c>   1</c></rc>
    <rc><c>Si</c><c>   1</c></rc>
    <rc><c>Si</c><c>   1</c></rc>
    <rc><c>Si</c><c>   1</c></rc>
    <rc><c>Si</c><c>   1</c></rc>
    <rc><c>Si</c><c>   1</c></rc>
    <rc><c>Si</c><c>   1</c></rc>
    <rc><c>Si</c><c>   1</c></rc>
    <rc><c>Si</c><c>   1</c></rc>
    <rc><c>Si</c><c>   1</c></rc>
    <rc><c>Si</c><c>   1</c></rc>
    <rc><c>Si</c><c>   1</c></rc>
    <rc><c>Si</c><c>   1</c></rc>
    <rc><c>Si</c><c>   1</c></rc>
    <rc><c>Si</c><c>   1</c></rc>
    <rc><c>Si</c><c>   1</c></rc>
    <rc><c>Si</c><c>   1</c></rc>
    <rc><c>Si</c><c>   1</c></rc>
    <rc><c>Si</c><c>   1</c></rc>
    <rc><c>Si</c><c>   1</c></rc>
    <rc><c>Si</c><c>   1</c></rc>
    <rc><c>Si</c><c>   1</c></rc>
    <rc><c>Si</c><c>   1</c></rc>
    <rc><c>Si</c><c>   1</c></rc>
    <rc><c>Si</c><c>   1</c></rc>
    <rc><c>Si</c><c>   1</c></rc>
    <rc><c>Si</c><c>   1</c></rc>
   </set>
  </array>
  <array name="atomtypes" >
   <dimension dim="1">type</dimension>
   <field type="int">atomspertype</field>
   <field type="string">element</field>
   <field>mass</field>
   <field>valence</field>
   <field type="string">pseudopotential</field>
   <set>
    <rc><c>  64</c><c>Si</c><c>     28.08500000</c><c>      4.00000000</c><c>  PAW_PBE Si 05Jan2001                  </c></rc>
   </set>
  </array>
 </atominfo>
 <structure name="initialpos" >
  <crystal>
   <varray name="basis" >
    <v>      10.93252578       0.00000000       0.00000000 </v>
    <v>       0.00000000      10.93252578       0.00000000 </v>
    <v>       0.00000000       0.00000000      10.93252578 </v>
   </varray>
   <i name="volume">   1306.65679237 </i>
   <varray name="rec_basis" >
    <v>       0.09147017       0.00000000       0.00000000 </v>
    <v>       0.00000000       0.09147017       0.00000000 </v>
    <v>       0.00000000       0.00000000       0.09147017 </v>
   </varray>
  </crystal>
  <varray name="positions" >
   <v>       0.44024411       0.43750000       0.43750000 </v>
   <v>       0.93750000       0.43750000       0.43750000 </v>
   <v>       0.43750000       0.93750000       0.43750000 </v>
   <v>       0.93750000       0.93750000       0.43750000 </v>
   <v>       0.43750000       0.43750000       0.93750000 </v>
   <v>       0.93750000       0.43750000       0.93750000 </v>
   <v>       0.43750000       0.93750000       0.93750000 </v>
   <v>       0.93750000       0.93750000       0.93750000 </v>
   <v>       0.43750000       0.18750000       0.18750000 </v>
   <v>       0.93750000       0.18750000       0.18750000 </v>
   <v>       0.43750000       0.68750000       0.18750000 </v>
   <v>       0.93750000       0.68750000       0.18750000 </v>
   <v>       0.43750000       0.18750000       0.68750000 </v>
   <v>       0.93750000       0.18750000       0.68750000 </v>
   <v>       0.43750000       0.68750000       0.68750000 </v>
   <v>       0.93750000       0.68750000       0.68750000 </v>
   <v>       0.18750000       0.43750000       0.18750000 </v>
   <v>       0.68750000       0.43750000       0.18750000 </v>
   <v>       0.18750000       0.93750000       0.18750000 </v>
   <v>       0.68750000       0.93750000       0.18750000 </v>
   <v>       0.18750000       0.43750000       0.68750000 </v>
   <v>       0.68750000       0.43750000       0.68750000 </v>
   <v>       0.18750000       0.93750000       0.68750000 </v>
   <v>       0.68750000       0.93750000       0.68750000 </v>
   <v>       0.18750000       0.18750000       0.43750000 </v>
   <v>       0.68750000       0.18750000       0.43750000 </v>
   <v>       0.18750000       0.68750000       0.43750000 </v>
   <v>       0.68750000       0.68750000       0.43750000 </v>
   <v>       0.18750000       0.18750000       0.93750000 </v>
   <v>       0.68750000       0.18750000       0.93750000 </v>
   <v>       0.18750000       0.68750000       0.93750000 </v>
   <v>       0.68750000       0.68750000       0.93750000 </v>
   <v>       0.06250000       0.06250000       0.06250000 </v>
   <v>       0.56250000       0.06250000       0.06250000 </v>
   <v>       0.06250000       0.56250000       0.06250000 </v>
   <v>       0.56250000       0.56250000       0.06250000 </v>
   <v>       0.06250000       0.06250000       0.56250000 </v>
   <v>       0.56250000       0.06250000       0.56250000 </v>
   <v>       0.06250000       0.56250000       0.56250000 </v>
   <v>       0.55975589       0.56250000       0.56250000 </v>
   <v>       0.06250000       0.31250000       0.31250000 </v>
   <v>       0.56250000       0.31250000       0.31250000 </v>
   <v>       0.06250000       0.81250000       0.31250000 </v>
   <v>       0.56250000       0.81250000       0.31250000 </v>
   <v>       0.06250000       0.31250000       0.81250000 </v>
   <v>       0.56250000       0.31250000       0.81250000 </v>
   <v>       0.06250000       0.81250000       0.81250000 </v>
   <v>       0.56250000       0.81250000       0.81250000 </v>
   <v>       0.31250000       0.06250000       0.31250000 </v>
   <v>       0.81250000       0.06250000       0.31250000 </v>
   <v>       0.31250000       0.56250000       0.31250000 </v>
   <v>       0.81250000       0.56250000       0.31250000 </v>
   <v>       0.31250000       0.06250000       0.81250000 </v>
   <v>       0.81250000       0.06250000       0.81250000 </v>
   <v>       0.31250000       0.56250000       0.81250000 </v>
   <v>       0.81250000       0.56250000       0.81250000 </v>
   <v>       0.31250000       0.31250000       0.06250000 </v>
   <v>       0.81250000       0.31250000       0.06250000 </v>
   <v>       0.31250000       0.81250000       0.06250000 </v>
   <v>       0.81250000       0.81250000       0.06250000 </v>
   <v>       0.31250000       0.31250000       0.56250000 </v>
   <v>       0.81250000       0.31250000       0.56250000 </v>
   <v>       0.31250000       0.81250000       0.56250000 </v>
   <v>       0.81250000       0.81250000       0.56250000 </v>
  </varray>
 </structure>
 <calculation>
  <scstep>
   <time name="dav">    3.18    3.18</time>
   <time name="total">    3.36    3.36</time>
   <energy>
    <i name="alphaZ">    105.52440745 </i>
    <i name="ewald">  -7265.47104868 </i>
    <i name="hartreedc">   -361.70858389 </i>
    <i name="XCdc">   -597.75711689 </i>
    <i name="pawpsdc">   5639.92317535 </i>
    <i name="pawaedc">  -4513.95313856 </i>
    <i name="eentropy">     -0.00017626 </i>
    <i name="bandstr">    856.49167591 </i>
    <i name="atom">   6596.14994790 </i>
    <i name="e_fr_energy">    459.19914233 </i>
    <i name="e_wo_entrp">    459.19931860 </i>
    <i name="e_0_energy">    459.19923047 </i>
   </energy>
  </scstep>
  <scstep>
   <time name="dav">    3.63    3.63</time>
   <time name="total">    3.63    3.63</time>
   <energy>
    <i name="e_fr_energy">   -299.97302214 </i>
    <i name="e_wo_entrp">   -299.97302214 </i>
    <i name="e_0_energy">   -299.97302214 </i>
   </energy>
  </scstep>
  <scstep>
   <time name="dav">    3.68    3.68</time>
   <time name="total">    3.68    3.69</time>
   <energy>
    <i name="e_fr_energy">   -350.82280285 </i>
    <i name="e_wo_entrp">   -350.82280285 </i>
    <i name="e_0_energy">   -350.82280285 </i>
   </energy>
  </scstep>
  <scstep>
   <time name="dav">    3.65    3.65</time>
   <time name="total">    3.65    3.77</time>
   <energy>
    <i name="e_fr_energy">   -352.26102251 </i>
    <i name="e_wo_entrp">   -352.26102251 </i>
    <i name="e_0_energy">   -352.26102251 </i>
   </energy>
  </scstep>
  <scstep>
   <time name="dav">    3.61    3.62</time>
   <time name="total">    3.83    3.84</time>
   <energy>
    <i name="e_fr_energy">   -352.30983236 </i>
    <i name="e_wo_entrp">   -352.30983236 </i>
    <i name="e_0_energy">   -352.30983236 </i>
   </energy>
  </scstep>
  <scstep>
   <time name="dav">    3.51    3.52</time>
   <time name="total">    3.91    3.92</time>
   <energy>
    <i name="e_fr_energy">   -348.58154987 </i>
    <i name="e_wo_entrp">   -348.58154987 </i>
    <i name="e_0_energy">   -348.58154987 </i>
   </energy>
  </scstep>
  <scstep>
   <time name="dav">    3.48    3.48</time>
   <time name="total">    3.87    3.88</time>
   <energy>
    <i name="e_fr_energy">   -346.86901433 </i>
    <i name="e_wo_entrp">   -346.86901433 </i>
    <i name="e_0_energy">   -346.86901433 </i>
   </energy>
  </scstep>
  <scstep>
   <time name="dav">    3.61    3.62</time>
   <time name="total">    4.00    4.02</time>
   <energy>
    <i name="e_fr_energy">   -346.89517914 </i>
    <i name="e_wo_entrp">   -346.89517914 </i>
    <i name="e_0_energy">   -346.89517914 </i>
   </energy>
  </scstep>
  <scstep>
   <time name="dav">    3.67    3.69</time>
   <time name="total">    4.07    4.09</time>
   <energy>
    <i name="e_fr_energy">   -346.90197534 </i>
    <i name="e_wo_entrp">   -346.90197534 </i>
    <i name="e_0_energy">   -346.90197534 </i>
   </energy>
  </scstep>
  <scstep>
   <time name="dav">    3.44    3.44</time>
   <time name="total">    3.83    3.84</time>
   <energy>
    <i name="e_fr_energy">   -346.90400723 </i>
    <i name="e_wo_entrp">   -346.90400723 </i>
    <i name="e_0_energy">   -346.90400723 </i>
   </energy>
  </scstep>
  <scstep>
   <time name="dav">    3.62    3.62</time>
   <time name="total">    4.01    4.03</time>
   <energy>
    <i name="e_fr_energy">   -346.90398689 </i>
    <i name="e_wo_entrp">   -346.90398689 </i>
    <i name="e_0_energy">   -346.90398689 </i>
   </energy>
  </scstep>
  <scstep>
   <time name="dav">    3.58    3.58</time>
   <time name="total">    3.97    3.98</time>
   <energy>
    <i name="e_fr_energy">   -346.90400144 </i>
    <i name="e_wo_entrp">   -346.90400144 </i>
    <i name="e_0_energy">   -346.90400144 </i>
   </energy>
  </scstep>
  <scstep>
   <time name="dav">    3.54    3.55</time>
   <time name="total">    3.94    3.99</time>
   <energy>
    <i name="e_fr_energy">   -346.90400187 </i>
    <i name="e_wo_entrp">   -346.90400187 </i>
    <i name="e_0_energy">   -346.90400187 </i>
   </energy>
  </scstep>
  <scstep>
   <time name="dav">    3.64    3.65</time>
   <time name="total">    4.04    4.07</time>
   <energy>
    <i name="e_fr_energy">   -346.90400245 </i>
    <i name="e_wo_entrp">   -346.90400245 </i>
    <i name="e_0_energy">   -346.90400245 </i>
   </energy>
  </scstep>
  <scstep>
   <time name="dav">    3.06    3.07</time>
   <time name="total">    3.46    3.47</time>
   <energy>
    <i name="e_fr_energy">   -346.90400221 </i>
    <i name="e_wo_entrp">   -346.90400221 </i>
    <i name="e_0_energy">   -346.90400221 </i>
   </energy>
  </scstep>
  <scstep>
   <time name="dav">    2.45    2.45</time>
   <time name="total">    2.85    2.86</time>
   <energy>
    <i name="e_fr_energy">   -346.90400229 </i>
    <i name="e_wo_entrp">   -346.90400229 </i>
    <i name="e_0_energy">   -346.90400229 </i>
   </energy>
  </scstep>
  <scstep>
   <time name="dav">    2.46    2.46</time>
   <time name="total">    2.86    2.90</time>
   <energy>
    <i name="e_fr_energy">   -346.90400228 </i>
    <i name="e_wo_entrp">   -346.90400228 </i>
    <i name="e_0_energy">   -346.90400228 </i>
   </energy>
  </scstep>
  <scstep>
   <time name="dav">    2.39    2.39</time>
   <time name="total">    2.80    2.81</time>
   <energy>
    <i name="e_fr_energy">   -346.90400229 </i>
    <i name="e_wo_entrp">   -346.90400229 </i>
    <i name="e_0_energy">   -346.90400229 </i>
   </energy>
  </scstep>
  <scstep>
   <time name="dav">    2.40    2.40</time>
   <time name="total">    2.58    2.58</time>
   <energy>
    <i name="alphaZ">    105.52440745 </i>
    <i name="ewald">  -7265.47104868 </i>
    <i name="hartreedc">   -485.13876275 </i>
    <i name="XCdc">   -577.61232430 </i>
    <i name="pawpsdc">  27883.61065930 </i>
    <i name="pawaedc"> -26764.32870441 </i>
    <i name="eentropy">      0.00000000 </i>
    <i name="bandstr">    160.36182319 </i>
    <i name="atom">   6596.14994790 </i>
    <i name="e_fr_energy">   -346.90400230 </i>
    <i name="e_wo_entrp">   -346.90400230 </i>
    <i name="e_0_energy">   -346.90400230 </i>
   </energy>
  </scstep>
  <structure>
   <crystal>
    <varray name="basis" >
     <v>      10.93252578       0.00000000       0.00000000 </v>
     <v>       0.00000000      10.93252578       0.00000000 </v>
     <v>       0.00000000       0.00000000      10.93252578 </v>
    </varray>
    <i name="volume">   1306.65679237 </i>
    <varray name="rec_basis" >
     <v>       0.09147017       0.00000000       0.00000000 </v>
     <v>       0.00000000       0.09147017       0.00000000 </v>
     <v>       0.00000000       0.00000000       0.09147017 </v>
    </varray>
   </crystal>
   <varray name="positions" >
    <v>       0.44024411       0.43750000       0.43750000 </v>
    <v>       0.93750000       0.43750000       0.43750000 </v>
    <v>       0.43750000       0.93750000       0.43750000 </v>
    <v>       0.93750000       0.93750000       0.43750000 </v>
    <v>       0.43750000       0.43750000       0.93750000 </v>
    <v>       0.93750000       0.43750000       0.93750000 </v>
    <v>       0.43750000       0.93750000       0.93750000 </v>
    <v>       0.93750000       0.93750000       0.93750000 </v>
    <v>       0.43750000       0.18750000       0.18750000 </v>
    <v>       0.93750000       0.18750000       0.18750000 </v>
    <v>       0.43750000       0.68750000       0.18750000 </v>
    <v>       0.93750000       0.68750000       0.18750000 </v>
    <v>       0.43750000       0.18750000       0.68750000 </v>
    <v>       0.93750000       0.18750000       0.68750000 </v>
    <v>       0.43750000       0.68750000       0.68750000 </v>
    <v>       0.93750000       0.68750000       0.68750000 </v>
    <v>       0.18750000       0.43750000       0.18750000 </v>
    <v>       0.68750000       0.43750000       0.18750000 </v>
    <v>       0.18750000       0.93750000       0.18750000 </v>
    <v>       0.68750000       0.93750000       0.18750000 </v>
    <v>       0.18750000       0.43750000       0.68750000 </v>
    <v>       0.68750000       0.43750000       0.68750000 </v>
    <v>       0.18750000       0.93750000       0.68750000 </v>
    <v>       0.68750000       0.93750000       0.68750000 </v>
    <v>       0.18750000       0.18750000       0.43750000 </v>
    <v>       0.68750000       0.18750000       0.43750000 </v>
    <v>       0.18750000       0.68750000       0.43750000 </v>
    <v>       0.68750000       0.68750000       0.43750000 </v>
    <v>       0.18750000       0.18750000       0.93750000 </v>
    <v>       0.68750000       0.18750000       0.93750000 </v>
    <v>       0.18750000       0.68750000       0.93750000 </v>
    <v>       0.68750000       0.68750000       0.93750000 </v>
    <v>       0.06250000       0.06250000       0.06250000 </v>
    <v>       0.56250000       0.06250000       0.06250000 </v>
    <v>       0.06250000       0.56250000       0.06250000 </v>
    <v>       0.56250000       0.56250000       0.06250000 </v>
    <v>       0.06250000       0.06250000       0.56250000 </v>
    <v>       0.56250000       0.06250000       0.56250000 </v>
    <v>       0.06250000       0.56250000       0.56250000 </v>
    <v>       0.55975589       0.56250000       0.56250000 </v>
    <v>       0.06250000       0.31250000       0.31250000 </v>
    <v>       0.56250000       0.31250000       0.31250000 </v>
    <v>       0.06250000       0.81250000       0.31250000 </v>
    <v>       0.56250000       0.81250000       0.31250000 </v>
    <v>       0.06250000       0.31250000       0.81250000 </v>
    <v>       0.56250000       0.31250000       0.81250000 </v>
    <v>       0.06250000       0.81250000       0.81250000 </v>
    <v>       0.56250000       0.81250000       0.81250000 </v>
    <v>       0.31250000       0.06250000       0.31250000 </v>
    <v>       0.81250000       0.06250000       0.31250000 </v>
    <v>       0.31250000       0.56250000       0.31250000 </v>
    <v>       0.81250000       0.56250000       0.31250000 </v>
    <v>       0.31250000       0.06250000       0.81250000 </v>
    <v>       0.81250000       0.06250000       0.81250000 </v>
    <v>       0.31250000       0.56250000       0.81250000 </v>
    <v>       0.81250000       0.56250000       0.81250000 </v>
    <v>       0.31250000       0.31250000       0.06250000 </v>
    <v>       0.81250000       0.31250000       0.06250000 </v>
    <v>       0.31250000       0.81250000       0.06250000 </v>
    <v>       0.81250000       0.81250000       0.06250000 </v>
    <v>       0.31250000       0.31250000       0.56250000 </v>
    <v>       0.81250000       0.31250000       0.56250000 </v>
    <v>       0.31250000       0.81250000       0.56250000 </v>
    <v>       0.81250000       0.81250000       0.56250000 </v>
   </varray>
  </structure>
  <varray name="forces" >
   <v>      -0.48537270      -0.07144994      -0.07144994 </v>
   <v>       0.00082487      -0.00091417      -0.00091417 </v>
   <v>       0.00279895      -0.00092753      -0.00121719 </v>
   <v>      -0.00079404      -0.00059660      -0.00062300 </v>
   <v>       0.00279895      -0.00121719      -0.00092753 </v>
   <v>      -0.00079404      -0.00062300      -0.00059660 </v>
   <v>      -0.01779563      -0.00069028      -0.00069028 </v>
   <v>       0.00111406      -0.00075567      -0.00075567 </v>
   <v>      -0.01912412       0.00346937       0.00346937 </v>
   <v>       0.00050905       0.00098385       0.00098385 </v>
   <v>      -0.01129185       0.00386149      -0.00172718 </v>
   <v>      -0.00060923       0.00088023       0.00035771 </v>
   <v>      -0.01129185      -0.00172718       0.00386149 </v>
   <v>      -0.00060923       0.00035771       0.00088023 </v>
   <v>      -0.10878021       0.06327904       0.06327904 </v>
   <v>       0.00024151       0.00068489       0.00068489 </v>
   <v>       0.00494945      -0.00194038       0.00493854 </v>
   <v>       0.00723383      -0.00149260      -0.00658337 </v>
   <v>       0.00155317       0.00051429      -0.00261218 </v>
   <v>      -0.00511020       0.00044410       0.00117436 </v>
   <v>       0.00591568       0.00356626      -0.00646171 </v>
   <v>      -0.08726161       0.06383303      -0.05528521 </v>
   <v>       0.00036076       0.00086122       0.00117229 </v>
   <v>       0.00245004       0.00110501      -0.00311323 </v>
   <v>       0.00494945       0.00493854      -0.00194038 </v>
   <v>       0.00723383      -0.00658337      -0.00149260 </v>
   <v>       0.00591568      -0.00646171       0.00356626 </v>
   <v>      -0.08726161      -0.05528521       0.06383303 </v>
   <v>       0.00155317      -0.00261218       0.00051429 </v>
   <v>      -0.00511020       0.00117436       0.00044410 </v>
   <v>       0.00036076       0.00117229       0.00086122 </v>
   <v>       0.00245004      -0.00311323       0.00110501 </v>
   <v>      -0.00111406       0.00075567       0.00075567 </v>
   <v>       0.01779563       0.00069028       0.00069028 </v>
   <v>       0.00079404       0.00062300       0.00059660 </v>
   <v>      -0.00279895       0.00121719       0.00092753 </v>
   <v>       0.00079404       0.00059660       0.00062300 </v>
   <v>      -0.00279895       0.00092753       0.00121719 </v>
   <v>      -0.00082487       0.00091417       0.00091417 </v>
   <v>       0.48537270       0.07144994       0.07144994 </v>
   <v>      -0.00024151      -0.00068489      -0.00068489 </v>
   <v>       0.10878021      -0.06327904      -0.06327904 </v>
   <v>       0.00060923      -0.00035771      -0.00088023 </v>
   <v>       0.01129185       0.00172718      -0.00386149 </v>
   <v>       0.00060923      -0.00088023      -0.00035771 </v>
   <v>       0.01129185      -0.00386149       0.00172718 </v>
   <v>      -0.00050905      -0.00098385      -0.00098385 </v>
   <v>       0.01912412      -0.00346937      -0.00346937 </v>
   <v>      -0.00245004      -0.00110501       0.00311323 </v>
   <v>      -0.00036076      -0.00086122      -0.00117229 </v>
   <v>       0.08726161      -0.06383303       0.05528521 </v>
   <v>      -0.00591568      -0.00356626       0.00646171 </v>
   <v>       0.00511020      -0.00044410      -0.00117436 </v>
   <v>      -0.00155317      -0.00051429       0.00261218 </v>
   <v>      -0.00723383       0.00149260       0.00658337 </v>
   <v>      -0.00494945       0.00194038      -0.00493854 </v>
   <v>      -0.00245004       0.00311323      -0.00110501 </v>
   <v>      -0.00036076      -0.00117229      -0.00086122 </v>
   <v>       0.00511020      -0.00117436      -0.00044410 </v>
   <v>      -0.00155317       0.00261218      -0.00051429 </v>
   <v>       0.08726161       0.05528521      -0.06383303 </v>
   <v>      -0.00591568       0.00646171      -0.00356626 </v>
   <v>      -0.00723383       0.00658337       0.00149260 </v>
   <v>      -0.00494945      -0.00493854       0.00194038 </v>
  </varray>
  <varray name="stress" >
   <v>      -0.01941450       0.00427513       0.00427513 </v>
   <v>       0.00427515       0.02885826       0.67874015 </v>
   <v>       0.00427515       0.67874015       0.02885826 </v>
  </varray>
  <energy>
   <i name="e_fr_energy">   -346.90400230 </i>
   <i name="e_wo_entrp">   -346.90400230 </i>
   <i name="e_0_energy">      0.00000000 </i>
  </energy>
  <time name="totalsc">   76.53   76.94</time>
  <eigenvalues>
   <array>
    <dimension dim="1">band</dimension>
    <dimension dim="2">kpoint</dimension>
    <dimension dim="3">spin</dimension>
    <field>eigene</field>
    <field>occ</field>
    <set>
     <set comment="spin 1">
      <set comment="kpoint 1">
       <r>   -5.9931    1.0000 </r>
       <r>   -5.4668    1.0000 </r>
       <r>   -5.4647    1.0000 </r>
       <r>   -5.4632    1.0000 </r>
       <r>   -4.9679    1.0000 </r>
       <r>   -4.9648    1.0000 </r>
       <r>   -4.9638    1.0000 </r>
       <r>   -4.5314    1.0000 </r>
       <r>   -4.4334    1.0000 </r>
       <r>   -4.4320    1.0000 </r>
       <r>   -4.4308    1.0000 </r>
       <r>   -4.0243    1.0000 </r>
       <r>   -4.0187    1.0000 </r>
       <r>   -4.0156    1.0000 </r>
       <r>   -4.0153    1.0000 </r>
       <r>   -4.0153    1.0000 </r>
       <r>   -4.0125    1.0000 </r>
       <r>   -3.8308    1.0000 </r>
       <r>   -3.8226    1.0000 </r>
       <r>   -3.8216    1.0000 </r>
       <r>   -3.3295    1.0000 </r>
       <r>   -3.3264    1.0000 </r>
       <r>   -3.3240    1.0000 </r>
       <r>   -2.9639    1.0000 </r>
       <r>   -2.9582    1.0000 </r>
       <r>   -2.9564    1.0000 </r>
       <r>   -2.8009    1.0000 </r>
       <r>   -2.7923    1.0000 </r>
       <r>   -2.7898    1.0000 </r>
       <r>   -2.7894    1.0000 </r>
       <r>   -2.7881    1.0000 </r>
       <r>   -2.7863    1.0000 </r>
       <r>   -1.2615    1.0000 </r>
       <r>   -1.2493    1.0000 </r>
       <r>   -1.2478    1.0000 </r>
       <r>   -1.2467    1.0000 </r>
       <r>   -1.2432    1.0000 </r>
       <r>   -1.2423    1.0000 </r>
       <r>   -1.1519    1.0000 </r>
       <r>   -1.1516    1.0000 </r>
       <r>   -1.1476    1.0000 </r>
       <r>   -1.0369    1.0000 </r>
       <r>   -1.0311    1.0000 </r>
       <r>   -1.0252    1.0000 </r>
       <r>   -0.9599    1.0000 </r>
       <r>   -0.9472    1.0000 </r>
       <r>   -0.9447    1.0000 </r>
       <r>   -0.2481    1.0000 </r>
       <r>   -0.1686    1.0000 </r>
       <r>   -0.1619    1.0000 </r>
       <r>   -0.1596    1.0000 </r>
       <r>   -0.1583    1.0000 </r>
       <r>   -0.1535    1.0000 </r>
       <r>   -0.1502    1.0000 </r>
       <r>    0.7040    1.0000 </r>
       <r>    0.7145    1.0000 </r>
       <r>    0.7176    1.0000 </r>
       <r>    1.0418    1.0000 </r>
       <r>    1.0490    1.0000 </r>
       <r>    1.0506    1.0000 </r>
       <r>    1.6523    1.0000 </r>
       <r>    1.6548    1.0000 </r>
       <r>    1.6566    1.0000 </r>
       <r>    1.6573    1.0000 </r>
       <r>    1.6598    1.0000 </r>
       <r>    1.6610    1.0000 </r>
       <r>    1.7135    1.0000 </r>
       <r>    1.7184    1.0000 </r>
       <r>    1.7203    1.0000 </r>
       <r>    2.2632    1.0000 </r>
       <r>    2.2667    1.0000 </r>
       <r>    2.2675    1.0000 </r>
       <r>    2.3666    1.0000 </r>
       <r>    2.3678    1.0000 </r>
       <r>    2.3710    1.0000 </r>
       <r>    2.3733    1.0000 </r>
       <r>    2.3758    1.0000 </r>
       <r>    2.3770    1.0000 </r>
       <r>    2.4227    1.0000 </r>
       <r>    2.4273    1.0000 </r>
       <r>    2.4321    1.0000 </r>
       <r>    2.7264    1.0000 </r>
       <r>    2.7351    1.0000 </r>
       <r>    2.7358    1.0000 </r>
       <r>    2.7360    1.0000 </r>
       <r>    2.7374    1.0000 </r>
       <r>    2.7380    1.0000 </r>
       <r>    2.9978    1.0000 </r>
       <r>    2.9999    1.0000 </r>
       <r>    3.0039    1.0000 </r>
       <r>    3.0095    1.0000 </r>
       <r>    3.0170    1.0000 </r>
       <r>    3.0170    1.0000 </r>
       <r>    3.3547    1.0000 </r>
       <r>    3.3612    1.0000 </r>
       <r>    3.3634    1.0000 </r>
       <r>    3.3770    1.0000 </r>
       <r>    3.3829    1.0000 </r>
       <r>    3.3852    1.0000 </r>
       <r>    3.4643    1.0000 </r>
       <r>    3.4670    1.0000 </r>
       <r>    3.4717    1.0000 </r>
       <r>    3.7263    1.0000 </r>
       <r>    3.7385    1.0000 </r>
       <r>    3.7395    1.0000 </r>
       <r>    3.7421    1.0000 </r>
       <r>    3.7422    1.0000 </r>
       <r>    3.7436    1.0000 </r>
       <r>    3.7785    1.0000 </r>
       <r>    3.7809    1.0000 </r>
       <r>    3.7867    1.0000 </r>
       <r>    4.0367    1.0000 </r>
       <r>    4.0980    1.0000 </r>
       <r>    4.0983    1.0000 </r>
       <r>    4.1043    1.0000 </r>
       <r>    4.3387    1.0000 </r>
       <r>    4.3415    1.0000 </r>
       <r>    4.3481    1.0000 </r>
       <r>    4.3946    1.0000 </r>
       <r>    4.4046    1.0000 </r>
       <r>    4.4057    1.0000 </r>
       <r>    4.5594    1.0000 </r>
       <r>    4.5686    1.0000 </r>
       <r>    4.8681    1.0000 </r>
       <r>    4.8705    1.0000 </r>
       <r>    4.8796    1.0000 </r>
       <r>    5.3466    1.0000 </r>
       <r>    5.3574    1.0000 </r>
       <r>    6.5599    0.0000 </r>
       <r>    6.5670    0.0000 </r>
       <r>    6.5681    0.0000 </r>
       <r>    6.9994    0.0000 </r>
       <r>    7.0049    0.0000 </r>
       <r>    7.0111    0.0000 </r>
       <r>    7.2352    0.0000 </r>
       <r>    7.4870    0.0000 </r>
       <r>    7.4927    0.0000 </r>
       <r>    7.4972    0.0000 </r>
       <r>    7.6153    0.0000 </r>
       <r>    7.6158    0.0000 </r>
       <r>    7.6233    0.0000 </r>
       <r>    7.7770    0.0000 </r>
       <r>    7.7809    0.0000 </r>
       <r>    7.7822    0.0000 </r>
       <r>    7.7981    0.0000 </r>
       <r>    7.8014    0.0000 </r>
       <r>    7.8066    0.0000 </r>
       <r>    8.0198    0.0000 </r>
       <r>    8.0246    0.0000 </r>
       <r>    8.0303    0.0000 </r>
       <r>    8.0307    0.0000 </r>
       <r>    8.0314    0.0000 </r>
       <r>    8.0351    0.0000 </r>
       <r>    8.0838    0.0000 </r>
       <r>    8.2918    0.0000 </r>
       <r>    8.2946    0.0000 </r>
       <r>    8.2991    0.0000 </r>
       <r>    8.4917    0.0000 </r>
       <r>    8.5007    0.0000 </r>
       <r>    8.5023    0.0000 </r>
       <r>    8.5039    0.0000 </r>
       <r>    8.5077    0.0000 </r>
       <r>    8.5203    0.0000 </r>
       <r>    8.5471    0.0000 </r>
      </set>
      <set comment="kpoint 2">
       <r>   -5.9931    1.0000 </r>
       <r>   -5.4691    1.0000 </r>
       <r>   -5.4632    1.0000 </r>
       <r>   -5.4624    1.0000 </r>
       <r>   -4.9695    1.0000 </r>
       <r>   -4.9638    1.0000 </r>
       <r>   -4.9632    1.0000 </r>
       <r>   -4.5312    1.0000 </r>
       <r>   -4.4360    1.0000 </r>
       <r>   -4.4308    1.0000 </r>
       <r>   -4.4298    1.0000 </r>
       <r>   -4.0314    1.0000 </r>
       <r>   -4.0167    1.0000 </r>
       <r>   -4.0159    1.0000 </r>
       <r>   -4.0139    1.0000 </r>
       <r>   -4.0133    1.0000 </r>
       <r>   -4.0106    1.0000 </r>
       <r>   -3.8312    1.0000 </r>
       <r>   -3.8219    1.0000 </r>
       <r>   -3.8216    1.0000 </r>
       <r>   -3.3285    1.0000 </r>
       <r>   -3.3264    1.0000 </r>
       <r>   -3.3250    1.0000 </r>
       <r>   -2.9669    1.0000 </r>
       <r>   -2.9564    1.0000 </r>
       <r>   -2.9557    1.0000 </r>
       <r>   -2.8044    1.0000 </r>
       <r>   -2.7917    1.0000 </r>
       <r>   -2.7904    1.0000 </r>
       <r>   -2.7879    1.0000 </r>
       <r>   -2.7872    1.0000 </r>
       <r>   -2.7849    1.0000 </r>
       <r>   -1.2631    1.0000 </r>
       <r>   -1.2491    1.0000 </r>
       <r>   -1.2482    1.0000 </r>
       <r>   -1.2454    1.0000 </r>
       <r>   -1.2442    1.0000 </r>
       <r>   -1.2415    1.0000 </r>
       <r>   -1.1569    1.0000 </r>
       <r>   -1.1475    1.0000 </r>
       <r>   -1.1460    1.0000 </r>
       <r>   -1.0371    1.0000 </r>
       <r>   -1.0311    1.0000 </r>
       <r>   -1.0244    1.0000 </r>
       <r>   -0.9595    1.0000 </r>
       <r>   -0.9482    1.0000 </r>
       <r>   -0.9448    1.0000 </r>
       <r>   -0.2481    1.0000 </r>
       <r>   -0.1716    1.0000 </r>
       <r>   -0.1600    1.0000 </r>
       <r>   -0.1597    1.0000 </r>
       <r>   -0.1563    1.0000 </r>
       <r>   -0.1551    1.0000 </r>
       <r>   -0.1494    1.0000 </r>
       <r>    0.7045    1.0000 </r>
       <r>    0.7139    1.0000 </r>
       <r>    0.7175    1.0000 </r>
       <r>    1.0423    1.0000 </r>
       <r>    1.0485    1.0000 </r>
       <r>    1.0506    1.0000 </r>
       <r>    1.6513    1.0000 </r>
       <r>    1.6551    1.0000 </r>
       <r>    1.6559    1.0000 </r>
       <r>    1.6582    1.0000 </r>
       <r>    1.6586    1.0000 </r>
       <r>    1.6631    1.0000 </r>
       <r>    1.7142    1.0000 </r>
       <r>    1.7182    1.0000 </r>
       <r>    1.7190    1.0000 </r>
       <r>    2.2625    1.0000 </r>
       <r>    2.2674    1.0000 </r>
       <r>    2.2676    1.0000 </r>
       <r>    2.3670    1.0000 </r>
       <r>    2.3680    1.0000 </r>
       <r>    2.3717    1.0000 </r>
       <r>    2.3729    1.0000 </r>
       <r>    2.3749    1.0000 </r>
       <r>    2.3785    1.0000 </r>
       <r>    2.4218    1.0000 </r>
       <r>    2.4282    1.0000 </r>
       <r>    2.4310    1.0000 </r>
       <r>    2.7251    1.0000 </r>
       <r>    2.7355    1.0000 </r>
       <r>    2.7360    1.0000 </r>
       <r>    2.7361    1.0000 </r>
       <r>    2.7367    1.0000 </r>
       <r>    2.7392    1.0000 </r>
       <r>    2.9980    1.0000 </r>
       <r>    3.0009    1.0000 </r>
       <r>    3.0023    1.0000 </r>
       <r>    3.0098    1.0000 </r>
       <r>    3.0166    1.0000 </r>
       <r>    3.0175    1.0000 </r>
       <r>    3.3541    1.0000 </r>
       <r>    3.3619    1.0000 </r>
       <r>    3.3633    1.0000 </r>
       <r>    3.3756    1.0000 </r>
       <r>    3.3837    1.0000 </r>
       <r>    3.3851    1.0000 </r>
       <r>    3.4645    1.0000 </r>
       <r>    3.4681    1.0000 </r>
       <r>    3.4707    1.0000 </r>
       <r>    3.7269    1.0000 </r>
       <r>    3.7349    1.0000 </r>
       <r>    3.7413    1.0000 </r>
       <r>    3.7422    1.0000 </r>
       <r>    3.7430    1.0000 </r>
       <r>    3.7435    1.0000 </r>
       <r>    3.7788    1.0000 </r>
       <r>    3.7821    1.0000 </r>
       <r>    3.7854    1.0000 </r>
       <r>    4.0366    1.0000 </r>
       <r>    4.0982    1.0000 </r>
       <r>    4.1001    1.0000 </r>
       <r>    4.1027    1.0000 </r>
       <r>    4.3389    1.0000 </r>
       <r>    4.3429    1.0000 </r>
       <r>    4.3466    1.0000 </r>
       <r>    4.3956    1.0000 </r>
       <r>    4.4033    1.0000 </r>
       <r>    4.4057    1.0000 </r>
       <r>    4.5595    1.0000 </r>
       <r>    4.5687    1.0000 </r>
       <r>    4.8682    1.0000 </r>
       <r>    4.8721    1.0000 </r>
       <r>    4.8779    1.0000 </r>
       <r>    5.3467    1.0000 </r>
       <r>    5.3575    1.0000 </r>
       <r>    6.5599    0.0000 </r>
       <r>    6.5669    0.0000 </r>
       <r>    6.5681    0.0000 </r>
       <r>    6.9995    0.0000 </r>
       <r>    7.0044    0.0000 </r>
       <r>    7.0116    0.0000 </r>
       <r>    7.2351    0.0000 </r>
       <r>    7.4870    0.0000 </r>
       <r>    7.4920    0.0000 </r>
       <r>    7.4976    0.0000 </r>
       <r>    7.6142    0.0000 </r>
       <r>    7.6158    0.0000 </r>
       <r>    7.6244    0.0000 </r>
       <r>    7.7769    0.0000 </r>
       <r>    7.7792    0.0000 </r>
       <r>    7.7839    0.0000 </r>
       <r>    7.7983    0.0000 </r>
       <r>    7.8032    0.0000 </r>
       <r>    7.8050    0.0000 </r>
       <r>    8.0184    0.0000 </r>
       <r>    8.0237    0.0000 </r>
       <r>    8.0307    0.0000 </r>
       <r>    8.0319    0.0000 </r>
       <r>    8.0328    0.0000 </r>
       <r>    8.0349    0.0000 </r>
       <r>    8.0834    0.0000 </r>
       <r>    8.2919    0.0000 </r>
       <r>    8.2941    0.0000 </r>
       <r>    8.2995    0.0000 </r>
       <r>    8.4906    0.0000 </r>
       <r>    8.4997    0.0000 </r>
       <r>    8.5029    0.0000 </r>
       <r>    8.5044    0.0000 </r>
       <r>    8.5082    0.0000 </r>
       <r>    8.5268    0.0000 </r>
       <r>    8.5389    0.0000 </r>
      </set>
      <set comment="kpoint 3">
       <r>   -5.9932    1.0000 </r>
       <r>   -5.4671    1.0000 </r>
       <r>   -5.4647    1.0000 </r>
       <r>   -5.4622    1.0000 </r>
       <r>   -4.9682    1.0000 </r>
       <r>   -4.9657    1.0000 </r>
       <r>   -4.9629    1.0000 </r>
       <r>   -4.5334    1.0000 </r>
       <r>   -4.4353    1.0000 </r>
       <r>   -4.4330    1.0000 </r>
       <r>   -4.4301    1.0000 </r>
       <r>   -4.0213    1.0000 </r>
       <r>   -4.0208    1.0000 </r>
       <r>   -4.0165    1.0000 </r>
       <r>   -4.0161    1.0000 </r>
       <r>   -4.0139    1.0000 </r>
       <r>   -4.0075    1.0000 </r>
       <r>   -3.8268    1.0000 </r>
       <r>   -3.8225    1.0000 </r>
       <r>   -3.8218    1.0000 </r>
       <r>   -3.3345    1.0000 </r>
       <r>   -3.3300    1.0000 </r>
       <r>   -3.3260    1.0000 </r>
       <r>   -2.9623    1.0000 </r>
       <r>   -2.9584    1.0000 </r>
       <r>   -2.9557    1.0000 </r>
       <r>   -2.7957    1.0000 </r>
       <r>   -2.7951    1.0000 </r>
       <r>   -2.7908    1.0000 </r>
       <r>   -2.7907    1.0000 </r>
       <r>   -2.7892    1.0000 </r>
       <r>   -2.7819    1.0000 </r>
       <r>   -1.2568    1.0000 </r>
       <r>   -1.2546    1.0000 </r>
       <r>   -1.2494    1.0000 </r>
       <r>   -1.2485    1.0000 </r>
       <r>   -1.2478    1.0000 </r>
       <r>   -1.2395    1.0000 </r>
       <r>   -1.1556    1.0000 </r>
       <r>   -1.1530    1.0000 </r>
       <r>   -1.1473    1.0000 </r>
       <r>   -1.0373    1.0000 </r>
       <r>   -1.0370    1.0000 </r>
       <r>   -1.0282    1.0000 </r>
       <r>   -0.9479    1.0000 </r>
       <r>   -0.9453    1.0000 </r>
       <r>   -0.9346    1.0000 </r>
       <r>   -0.2411    1.0000 </r>
       <r>   -0.1697    1.0000 </r>
       <r>   -0.1679    1.0000 </r>
       <r>   -0.1607    1.0000 </r>
       <r>   -0.1598    1.0000 </r>
       <r>   -0.1594    1.0000 </r>
       <r>   -0.1516    1.0000 </r>
       <r>    0.7127    1.0000 </r>
       <r>    0.7141    1.0000 </r>
       <r>    0.7229    1.0000 </r>
       <r>    1.0437    1.0000 </r>
       <r>    1.0450    1.0000 </r>
       <r>    1.0524    1.0000 </r>
       <r>    1.6512    1.0000 </r>
       <r>    1.6543    1.0000 </r>
       <r>    1.6570    1.0000 </r>
       <r>    1.6577    1.0000 </r>
       <r>    1.6597    1.0000 </r>
       <r>    1.6603    1.0000 </r>
       <r>    1.7124    1.0000 </r>
       <r>    1.7138    1.0000 </r>
       <r>    1.7194    1.0000 </r>
       <r>    2.2676    1.0000 </r>
       <r>    2.2688    1.0000 </r>
       <r>    2.2723    1.0000 </r>
       <r>    2.3622    1.0000 </r>
       <r>    2.3634    1.0000 </r>
       <r>    2.3708    1.0000 </r>
       <r>    2.3712    1.0000 </r>
       <r>    2.3736    1.0000 </r>
       <r>    2.3752    1.0000 </r>
       <r>    2.4199    1.0000 </r>
       <r>    2.4231    1.0000 </r>
       <r>    2.4265    1.0000 </r>
       <r>    2.7306    1.0000 </r>
       <r>    2.7318    1.0000 </r>
       <r>    2.7345    1.0000 </r>
       <r>    2.7356    1.0000 </r>
       <r>    2.7360    1.0000 </r>
       <r>    2.7422    1.0000 </r>
       <r>    2.9945    1.0000 </r>
       <r>    2.9992    1.0000 </r>
       <r>    2.9998    1.0000 </r>
       <r>    3.0099    1.0000 </r>
       <r>    3.0107    1.0000 </r>
       <r>    3.0172    1.0000 </r>
       <r>    3.3613    1.0000 </r>
       <r>    3.3630    1.0000 </r>
       <r>    3.3668    1.0000 </r>
       <r>    3.3847    1.0000 </r>
       <r>    3.3874    1.0000 </r>
       <r>    3.3903    1.0000 </r>
       <r>    3.4613    1.0000 </r>
       <r>    3.4665    1.0000 </r>
       <r>    3.4687    1.0000 </r>
       <r>    3.7401    1.0000 </r>
       <r>    3.7406    1.0000 </r>
       <r>    3.7418    1.0000 </r>
       <r>    3.7434    1.0000 </r>
       <r>    3.7464    1.0000 </r>
       <r>    3.7506    1.0000 </r>
       <r>    3.7748    1.0000 </r>
       <r>    3.7804    1.0000 </r>
       <r>    3.7835    1.0000 </r>
       <r>    4.0443    1.0000 </r>
       <r>    4.0920    1.0000 </r>
       <r>    4.0972    1.0000 </r>
       <r>    4.0981    1.0000 </r>
       <r>    4.3346    1.0000 </r>
       <r>    4.3408    1.0000 </r>
       <r>    4.3419    1.0000 </r>
       <r>    4.4065    1.0000 </r>
       <r>    4.4073    1.0000 </r>
       <r>    4.4178    1.0000 </r>
       <r>    4.5570    1.0000 </r>
       <r>    4.5666    1.0000 </r>
       <r>    4.8615    1.0000 </r>
       <r>    4.8696    1.0000 </r>
       <r>    4.8716    1.0000 </r>
       <r>    5.3424    1.0000 </r>
       <r>    5.3528    1.0000 </r>
       <r>    6.5588    0.0000 </r>
       <r>    6.5631    0.0000 </r>
       <r>    6.5632    0.0000 </r>
       <r>    6.9993    0.0000 </r>
       <r>    7.0034    0.0000 </r>
       <r>    7.0083    0.0000 </r>
       <r>    7.2323    0.0000 </r>
       <r>    7.4852    0.0000 </r>
       <r>    7.4884    0.0000 </r>
       <r>    7.4935    0.0000 </r>
       <r>    7.6186    0.0000 </r>
       <r>    7.6195    0.0000 </r>
       <r>    7.6245    0.0000 </r>
       <r>    7.7768    0.0000 </r>
       <r>    7.7788    0.0000 </r>
       <r>    7.7823    0.0000 </r>
       <r>    7.7977    0.0000 </r>
       <r>    7.8014    0.0000 </r>
       <r>    7.8024    0.0000 </r>
       <r>    8.0268    0.0000 </r>
       <r>    8.0298    0.0000 </r>
       <r>    8.0306    0.0000 </r>
       <r>    8.0317    0.0000 </r>
       <r>    8.0342    0.0000 </r>
       <r>    8.0400    0.0000 </r>
       <r>    8.0793    0.0000 </r>
       <r>    8.2917    0.0000 </r>
       <r>    8.2948    0.0000 </r>
       <r>    8.2976    0.0000 </r>
       <r>    8.4941    0.0000 </r>
       <r>    8.4986    0.0000 </r>
       <r>    8.5018    0.0000 </r>
       <r>    8.5032    0.0000 </r>
       <r>    8.5105    0.0000 </r>
       <r>    8.5187    0.0000 </r>
       <r>    8.5431    0.0000 </r>
      </set>
     </set>
    </set>
   </array>
  </eigenvalues>
  <separator name="orbital magnetization" >
   <v name="MAGDIPOLOUT">      0.00000000      0.00000000      0.00000000</v>
  </separator>
  <dos>
   <i name="efermi">      5.59877210 </i>
   <total>
    <array>
     <dimension dim="1">gridpoints</dimension>
     <dimension dim="2">spin</dimension>
     <field>energy</field>
     <field>total</field>
     <field>integrated</field>
     <set>
      <set comment="spin 1">
       <r>    -6.7203     0.0000     0.0000 </r>
       <r>    -6.6669     0.0000     0.0000 </r>
       <r>    -6.6136     0.0000     0.0000 </r>
       <r>    -6.5603     0.0000     0.0000 </r>
       <r>    -6.5070     0.0000     0.0000 </r>
       <r>    -6.4537     0.0000     0.0000 </r>
       <r>    -6.4004     0.0000     0.0000 </r>
       <r>    -6.3470     0.0000     0.0000 </r>
       <r>    -6.2937     0.0000     0.0000 </r>
       <r>    -6.2404     0.0000     0.0000 </r>
       <r>    -6.1871     0.0000     0.0000 </r>
       <r>    -6.1338     0.0013     0.0001 </r>
       <r>    -6.0805     0.2525     0.0135 </r>
       <r>    -6.0272     6.0545     0.3363 </r>
       <r>    -5.9738    20.2376     1.4153 </r>
       <r>    -5.9205    10.2182     1.9601 </r>
       <r>    -5.8672     0.7420     1.9996 </r>
       <r>    -5.8139     0.0069     2.0000 </r>
       <r>    -5.7606     0.0000     2.0000 </r>
       <r>    -5.7073     0.0000     2.0000 </r>
       <r>    -5.6540     0.0000     2.0000 </r>
       <r>    -5.6006     0.0071     2.0004 </r>
       <r>    -5.5473     1.1070     2.0594 </r>
       <r>    -5.4940    21.9153     3.2278 </r>
       <r>    -5.4407    61.5668     6.5102 </r>
       <r>    -5.3874    26.3176     7.9133 </r>
       <r>    -5.3341     1.6130     7.9993 </r>
       <r>    -5.2808     0.0126     8.0000 </r>
       <r>    -5.2274     0.0000     8.0000 </r>
       <r>    -5.1741     0.0000     8.0000 </r>
       <r>    -5.1208     0.0007     8.0000 </r>
       <r>    -5.0675     0.2249     8.0120 </r>
       <r>    -5.0142     9.3311     8.5095 </r>
       <r>    -4.9609    52.6274    11.3153 </r>
       <r>    -4.9076    44.6370    13.6951 </r>
       <r>    -4.8542     5.6239    13.9950 </r>
       <r>    -4.8009     0.0942    14.0000 </r>
       <r>    -4.7476     0.0002    14.0000 </r>
       <r>    -4.6943     0.0001    14.0000 </r>
       <r>    -4.6410     0.0399    14.0021 </r>
       <r>    -4.5877     2.1708    14.1179 </r>
       <r>    -4.5344    15.9248    14.9669 </r>
       <r>    -4.4810    26.2008    16.3638 </r>
       <r>    -4.4277    55.3745    19.3160 </r>
       <r>    -4.3744    44.6465    21.6964 </r>
       <r>    -4.3211     5.6016    21.9950 </r>
       <r>    -4.2678     0.0935    22.0000 </r>
       <r>    -4.2145     0.0002    22.0000 </r>
       <r>    -4.1611     0.0059    22.0003 </r>
       <r>    -4.1078     1.1885    22.0637 </r>
       <r>    -4.0545    31.1028    23.7219 </r>
       <r>    -4.0012   117.5025    29.9865 </r>
       <r>    -3.9479    69.1556    33.6735 </r>
       <r>    -3.8946     8.7562    34.1404 </r>
       <r>    -3.8413    33.0186    35.9007 </r>
       <r>    -3.7879    59.6838    39.0828 </r>
       <r>    -3.7346    16.5547    39.9654 </r>
       <r>    -3.6813     0.6464    39.9998 </r>
       <r>    -3.6280     0.0032    40.0000 </r>
       <r>    -3.5747     0.0000    40.0000 </r>
       <r>    -3.5214     0.0000    40.0000 </r>
       <r>    -3.4681     0.0047    40.0003 </r>
       <r>    -3.4147     0.8416    40.0451 </r>
       <r>    -3.3614    18.9712    41.0566 </r>
       <r>    -3.3081    60.7630    44.2961 </r>
       <r>    -3.2548    29.8103    45.8855 </r>
       <r>    -3.2015     2.1287    45.9990 </r>
       <r>    -3.1482     0.0197    46.0000 </r>
       <r>    -3.0949     0.0077    46.0004 </r>
       <r>    -3.0415     1.1481    46.0616 </r>
       <r>    -2.9882    22.1458    47.2423 </r>
       <r>    -2.9349    61.4322    50.5176 </r>
       <r>    -2.8816    27.4297    51.9800 </r>
       <r>    -2.8283    33.5176    53.7669 </r>
       <r>    -2.7750   118.0075    60.0585 </r>
       <r>    -2.7217    68.0038    63.6841 </r>
       <r>    -2.6683     5.8585    63.9964 </r>
       <r>    -2.6150     0.0672    64.0000 </r>
       <r>    -2.5617     0.0001    64.0000 </r>
       <r>    -2.5084     0.0000    64.0000 </r>
       <r>    -2.4551     0.0000    64.0000 </r>
       <r>    -2.4018     0.0000    64.0000 </r>
       <r>    -2.3484     0.0000    64.0000 </r>
       <r>    -2.2951     0.0000    64.0000 </r>
       <r>    -2.2418     0.0000    64.0000 </r>
       <r>    -2.1885     0.0000    64.0000 </r>
       <r>    -2.1352     0.0000    64.0000 </r>
       <r>    -2.0819     0.0000    64.0000 </r>
       <r>    -2.0286     0.0000    64.0000 </r>
       <r>    -1.9752     0.0000    64.0000 </r>
       <r>    -1.9219     0.0000    64.0000 </r>
       <r>    -1.8686     0.0000    64.0000 </r>
       <r>    -1.8153     0.0000    64.0000 </r>
       <r>    -1.7620     0.0000    64.0000 </r>
       <r>    -1.7087     0.0000    64.0000 </r>
       <r>    -1.6554     0.0000    64.0000 </r>
       <r>    -1.6020     0.0000    64.0000 </r>
       <r>    -1.5487     0.0000    64.0000 </r>
       <r>    -1.4954     0.0000    64.0000 </r>
       <r>    -1.4421     0.0000    64.0000 </r>
       <r>    -1.3888     0.0113    64.0006 </r>
       <r>    -1.3355     1.7928    64.0962 </r>
       <r>    -1.2822    38.1687    66.1311 </r>
       <r>    -1.2288   122.0171    72.6364 </r>
       <r>    -1.1755    86.2168    77.2331 </r>
       <r>    -1.1222    66.6087    80.7843 </r>
       <r>    -1.0689    39.0476    82.8661 </r>
       <r>    -1.0156    63.7771    86.2663 </r>
       <r>    -0.9623    67.2098    89.8496 </r>
       <r>    -0.9090    61.1374    93.1091 </r>
       <r>    -0.8556    16.0526    93.9650 </r>
       <r>    -0.8023     0.6533    93.9998 </r>
       <r>    -0.7490     0.0035    94.0000 </r>
       <r>    -0.6957     0.0000    94.0000 </r>
       <r>    -0.6424     0.0000    94.0000 </r>
       <r>    -0.5891     0.0000    94.0000 </r>
       <r>    -0.5357     0.0000    94.0000 </r>
       <r>    -0.4824     0.0000    94.0000 </r>
       <r>    -0.4291     0.0000    94.0000 </r>
       <r>    -0.3758     0.0041    94.0002 </r>
       <r>    -0.3225     0.5271    94.0283 </r>
       <r>    -0.2692     8.9024    94.5030 </r>
       <r>    -0.2159    33.7915    96.3045 </r>
       <r>    -0.1625   100.3097   101.6525 </r>
       <r>    -0.1092   101.4235   107.0599 </r>
       <r>    -0.0559    17.2164   107.9778 </r>
       <r>    -0.0026     0.4157   107.9999 </r>
       <r>     0.0507     0.0013   108.0000 </r>
       <r>     0.1040     0.0000   108.0000 </r>
       <r>     0.1573     0.0000   108.0000 </r>
       <r>     0.2107     0.0000   108.0000 </r>
       <r>     0.2640     0.0000   108.0000 </r>
       <r>     0.3173     0.0000   108.0000 </r>
       <r>     0.3706     0.0000   108.0000 </r>
       <r>     0.4239     0.0000   108.0000 </r>
       <r>     0.4772     0.0000   108.0000 </r>
       <r>     0.5305     0.0000   108.0000 </r>
       <r>     0.5839     0.0153   108.0008 </r>
       <r>     0.6372     1.7470   108.0940 </r>
       <r>     0.6905    26.7317   109.5191 </r>
       <r>     0.7438    61.0063   112.7717 </r>
       <r>     0.7971    21.8798   113.9382 </r>
       <r>     0.8504     1.1513   113.9996 </r>
       <r>     0.9037     0.0110   114.0002 </r>
       <r>     0.9571     0.6355   114.0340 </r>
       <r>     1.0104    16.3574   114.9061 </r>
       <r>     1.0637    59.5212   118.0795 </r>
       <r>     1.1170    33.2543   119.8524 </r>
       <r>     1.1703     2.7381   119.9984 </r>
       <r>     1.2236     0.0296   120.0000 </r>
       <r>     1.2770     0.0000   120.0000 </r>
       <r>     1.3303     0.0000   120.0000 </r>
       <r>     1.3836     0.0000   120.0000 </r>
       <r>     1.4369     0.0000   120.0000 </r>
       <r>     1.4902     0.0003   120.0000 </r>
       <r>     1.5435     0.1586   120.0085 </r>
       <r>     1.5968    10.1131   120.5476 </r>
       <r>     1.6502    88.9180   125.2883 </r>
       <r>     1.7035   145.0760   133.0230 </r>
       <r>     1.7568    78.5775   137.2123 </r>
       <r>     1.8101    14.3149   137.9755 </r>
       <r>     1.8634     0.4578   137.9999 </r>
       <r>     1.9167     0.0019   138.0000 </r>
       <r>     1.9700     0.0000   138.0000 </r>
       <r>     2.0234     0.0000   138.0000 </r>
       <r>     2.0767     0.0000   138.0000 </r>
       <r>     2.1300     0.0058   138.0003 </r>
       <r>     2.1833     0.9694   138.0520 </r>
       <r>     2.2366    20.4725   139.1435 </r>
       <r>     2.2899    63.8802   142.5492 </r>
       <r>     2.3432    76.1612   146.6097 </r>
       <r>     2.3966   147.0459   154.4494 </r>
       <r>     2.4499   111.2120   160.3787 </r>
       <r>     2.5032    28.7940   161.9138 </r>
       <r>     2.5565     1.6039   161.9993 </r>
       <r>     2.6098     0.0619   162.0026 </r>
       <r>     2.6631     4.8568   162.2616 </r>
       <r>     2.7164    62.9691   165.6187 </r>
       <r>     2.7698   120.3267   172.0339 </r>
       <r>     2.8231    35.3903   173.9207 </r>
       <r>     2.8764     1.5151   174.0015 </r>
       <r>     2.9297     3.8199   174.2052 </r>
       <r>     2.9830    54.6109   177.1167 </r>
       <r>     3.0363   120.6954   183.5516 </r>
       <r>     3.0896    43.5062   185.8711 </r>
       <r>     3.1430     2.3996   185.9990 </r>
       <r>     3.1963     0.0182   186.0000 </r>
       <r>     3.2496     0.0994   186.0053 </r>
       <r>     3.3029     6.6546   186.3601 </r>
       <r>     3.3562    66.6943   189.9159 </r>
       <r>     3.4095   120.4830   196.3394 </r>
       <r>     3.4629    80.8452   200.6496 </r>
       <r>     3.5162    53.6715   203.5111 </r>
       <r>     3.5695     8.9589   203.9888 </r>
       <r>     3.6228     0.3192   204.0058 </r>
       <r>     3.6761     7.8468   204.4241 </r>
       <r>     3.7294    83.7718   208.8904 </r>
       <r>     3.7827   164.3528   217.6528 </r>
       <r>     3.8361    73.8794   221.5917 </r>
       <r>     3.8894     7.5290   221.9931 </r>
       <r>     3.9427     0.2425   222.0060 </r>
       <r>     3.9960     4.0797   222.2235 </r>
       <r>     4.0493    27.8382   223.7077 </r>
       <r>     4.1026    66.0583   227.2296 </r>
       <r>     4.1559    46.1523   229.6902 </r>
       <r>     4.2093     5.7260   229.9954 </r>
       <r>     4.2626     1.6403   230.0829 </r>
       <r>     4.3159    26.2095   231.4802 </r>
       <r>     4.3692    77.9701   235.6372 </r>
       <r>     4.4225    81.7238   239.9943 </r>
       <r>     4.4758    35.2122   241.8716 </r>
       <r>     4.5291    15.2738   242.6859 </r>
       <r>     4.5825    40.2525   244.8320 </r>
       <r>     4.6358    20.3639   245.9177 </r>
       <r>     4.6891     1.5293   245.9992 </r>
       <r>     4.7424     0.0348   246.0010 </r>
       <r>     4.7957     2.0752   246.1117 </r>
       <r>     4.8490    29.1113   247.6637 </r>
       <r>     4.9023    60.6603   250.8978 </r>
       <r>     4.9557    19.7343   251.9500 </r>
       <r>     5.0090     0.9329   251.9997 </r>
       <r>     5.0623     0.0057   252.0000 </r>
       <r>     5.1156     0.0000   252.0000 </r>
       <r>     5.1689     0.0000   252.0000 </r>
       <r>     5.2222     0.0137   252.0007 </r>
       <r>     5.2756     1.4164   252.0762 </r>
       <r>     5.3289    19.5265   253.1173 </r>
       <r>     5.3822    40.3273   255.2673 </r>
       <r>     5.4355    13.1136   255.9665 </r>
       <r>     5.4888     0.6248   255.9998 </r>
       <r>     5.5421     0.0039   256.0000 </r>
       <r>     5.5954     0.0000   256.0000 </r>
       <r>     5.6488     0.0000   256.0000 </r>
       <r>     5.7021     0.0000   256.0000 </r>
       <r>     5.7554     0.0000   256.0000 </r>
       <r>     5.8087     0.0000   256.0000 </r>
       <r>     5.8620     0.0000   256.0000 </r>
       <r>     5.9153     0.0000   256.0000 </r>
       <r>     5.9686     0.0000   256.0000 </r>
       <r>     6.0220     0.0000   256.0000 </r>
       <r>     6.0753     0.0000   256.0000 </r>
       <r>     6.1286     0.0000   256.0000 </r>
       <r>     6.1819     0.0000   256.0000 </r>
       <r>     6.2352     0.0000   256.0000 </r>
       <r>     6.2885     0.0000   256.0000 </r>
       <r>     6.3418     0.0000   256.0000 </r>
       <r>     6.3952     0.0001   256.0000 </r>
       <r>     6.4485     0.0684   256.0037 </r>
       <r>     6.5018     4.6037   256.2491 </r>
       <r>     6.5551    41.2722   258.4495 </r>
       <r>     6.6084    55.0950   261.3869 </r>
       <r>     6.6617    11.1849   261.9832 </r>
       <r>     6.7150     0.3139   261.9999 </r>
       <r>     6.7684     0.0011   262.0000 </r>
       <r>     6.8217     0.0000   262.0000 </r>
       <r>     6.8750     0.0157   262.0008 </r>
       <r>     6.9283     1.8230   262.0980 </r>
       <r>     6.9816    27.5795   263.5684 </r>
       <r>     7.0349    61.1100   266.8265 </r>
       <r>     7.0883    20.9662   267.9443 </r>
       <r>     7.1416     1.2111   268.0089 </r>
       <r>     7.1949     4.9446   268.2725 </r>
       <r>     7.2482    19.6053   269.3177 </r>
       <r>     7.3015    11.7589   269.9446 </r>
       <r>     7.3548     1.0342   269.9998 </r>
       <r>     7.4081     1.1545   270.0613 </r>
       <r>     7.4615    22.0410   271.2364 </r>
       <r>     7.5148    61.4964   274.5151 </r>
       <r>     7.5681    34.5117   276.3551 </r>
       <r>     7.6214    51.9921   279.1270 </r>
       <r>     7.6747    47.3059   281.6491 </r>
       <r>     7.7280    16.8012   282.5449 </r>
       <r>     7.7813    80.4456   286.8338 </r>
       <r>     7.8347   108.0935   292.5968 </r>
       <r>     7.8880    25.3826   293.9501 </r>
       <r>     7.9413     2.3531   294.0755 </r>
       <r>     7.9946    34.3782   295.9084 </r>
       <r>     8.0479   125.4016   302.5941 </r>
       <r>     8.1012    85.2361   307.1385 </r>
       <r>     8.1545    15.3737   307.9581 </r>
       <r>     8.2079     1.5709   308.0418 </r>
       <r>     8.2612    18.4062   309.0232 </r>
       <r>     8.3145    60.6275   312.2555 </r>
       <r>     8.3678    30.4916   313.8811 </r>
       <r>     8.4211     4.6416   314.1286 </r>
       <r>     8.4744    44.3826   316.4949 </r>
       <r>     8.5277   131.4763   323.5045 </r>
       <r>     8.5811    74.8456   327.4948 </r>
       <r>     8.6344     9.2414   327.9875 </r>
       <r>     8.6877     0.2328   328.0000 </r>
       <r>     8.7410     0.0009   328.0000 </r>
       <r>     8.7943     0.0000   328.0000 </r>
       <r>     8.8476     0.0000   328.0000 </r>
       <r>     8.9010     0.0000   328.0000 </r>
       <r>     8.9543     0.0000   328.0000 </r>
       <r>     9.0076     0.0000   328.0000 </r>
       <r>     9.0609     0.0000   328.0000 </r>
       <r>     9.1142     0.0000   328.0000 </r>
       <r>     9.1675     0.0000   328.0000 </r>
       <r>     9.2208     0.0000   328.0000 </r>
       <r>     9.2742     0.0000   328.0000 </r>
      </set>
     </set>
    </array>
   </total>
  </dos>
 </calculation>
 <structure name="finalpos" >
  <crystal>
   <varray name="basis" >
    <v>      10.93252578       0.00000000       0.00000000 </v>
    <v>       0.00000000      10.93252578       0.00000000 </v>
    <v>       0.00000000       0.00000000      10.93252578 </v>
   </varray>
   <i name="volume">   1306.65679237 </i>
   <varray name="rec_basis" >
    <v>       0.09147017       0.00000000       0.00000000 </v>
    <v>       0.00000000       0.09147017       0.00000000 </v>
    <v>       0.00000000       0.00000000       0.09147017 </v>
   </varray>
  </crystal>
  <varray name="positions" >
   <v>       0.44024411       0.43750000       0.43750000 </v>
   <v>       0.93750000       0.43750000       0.43750000 </v>
   <v>       0.43750000       0.93750000       0.43750000 </v>
   <v>       0.93750000       0.93750000       0.43750000 </v>
   <v>       0.43750000       0.43750000       0.93750000 </v>
   <v>       0.93750000       0.43750000       0.93750000 </v>
   <v>       0.43750000       0.93750000       0.93750000 </v>
   <v>       0.93750000       0.93750000       0.93750000 </v>
   <v>       0.43750000       0.18750000       0.18750000 </v>
   <v>       0.93750000       0.18750000       0.18750000 </v>
   <v>       0.43750000       0.68750000       0.18750000 </v>
   <v>       0.93750000       0.68750000       0.18750000 </v>
   <v>       0.43750000       0.18750000       0.68750000 </v>
   <v>       0.93750000       0.18750000       0.68750000 </v>
   <v>       0.43750000       0.68750000       0.68750000 </v>
   <v>       0.93750000       0.68750000       0.68750000 </v>
   <v>       0.18750000       0.43750000       0.18750000 </v>
   <v>       0.68750000       0.43750000       0.18750000 </v>
   <v>       0.18750000       0.93750000       0.18750000 </v>
   <v>       0.68750000       0.93750000       0.18750000 </v>
   <v>       0.18750000       0.43750000       0.68750000 </v>
   <v>       0.68750000       0.43750000       0.68750000 </v>
   <v>       0.18750000       0.93750000       0.68750000 </v>
   <v>       0.68750000       0.93750000       0.68750000 </v>
   <v>       0.18750000       0.18750000       0.43750000 </v>
   <v>       0.68750000       0.18750000       0.43750000 </v>
   <v>       0.18750000       0.68750000       0.43750000 </v>
   <v>       0.68750000       0.68750000       0.43750000 </v>
   <v>       0.18750000       0.18750000       0.93750000 </v>
   <v>       0.68750000       0.18750000       0.93750000 </v>
   <v>       0.18750000       0.68750000       0.93750000 </v>
   <v>       0.68750000       0.68750000       0.93750000 </v>
   <v>       0.06250000       0.06250000       0.06250000 </v>
   <v>       0.56250000       0.06250000       0.06250000 </v>
   <v>       0.06250000       0.56250000       0.06250000 </v>
   <v>       0.56250000       0.56250000       0.06250000 </v>
   <v>       0.06250000       0.06250000       0.56250000 </v>
   <v>       0.56250000       0.06250000       0.56250000 </v>
   <v>       0.06250000       0.56250000       0.56250000 </v>
   <v>       0.55975589       0.56250000       0.56250000 </v>
   <v>       0.06250000       0.31250000       0.31250000 </v>
   <v>       0.56250000       0.31250000       0.31250000 </v>
   <v>       0.06250000       0.81250000       0.31250000 </v>
   <v>       0.56250000       0.81250000       0.31250000 </v>
   <v>       0.06250000       0.31250000       0.81250000 </v>
   <v>       0.56250000       0.31250000       0.81250000 </v>
   <v>       0.06250000       0.81250000       0.81250000 </v>
   <v>       0.56250000       0.81250000       0.81250000 </v>
   <v>       0.31250000       0.06250000       0.31250000 </v>
   <v>       0.81250000       0.06250000       0.31250000 </v>
   <v>       0.31250000       0.56250000       0.31250000 </v>
   <v>       0.81250000       0.56250000       0.31250000 </v>
   <v>       0.31250000       0.06250000       0.81250000 </v>
   <v>       0.81250000       0.06250000       0.81250000 </v>
   <v>       0.31250000       0.56250000       0.81250000 </v>
   <v>       0.81250000       0.56250000       0.81250000 </v>
   <v>       0.31250000       0.31250000       0.06250000 </v>
   <v>       0.81250000       0.31250000       0.06250000 </v>
   <v>       0.31250000       0.81250000       0.06250000 </v>
   <v>       0.81250000       0.81250000       0.06250000 </v>
   <v>       0.31250000       0.31250000       0.56250000 </v>
   <v>       0.81250000       0.31250000       0.56250000 </v>
   <v>       0.31250000       0.81250000       0.56250000 </v>
   <v>       0.81250000       0.81250000       0.56250000 </v>
  </varray>
 </structure>
</modeling>
