<?xml version="1.0" encoding="ISO-8859-1"?>
<modeling>
 <generator>
  <i name="program" type="string">vasp </i>
  <i name="version" type="string">5.4.1  </i>
  <i name="subversion" type="string">05Feb16 (build Mar 26 2016 11:58:25) complex                          parallel </i>
  <i name="platform" type="string">IFC91_ompi </i>
  <i name="date" type="string">2017 03 12 </i>
  <i name="time" type="string">12:17:26 </i>
 </generator>
 <incar>
  <i type="string" name="PREC">accurate</i>
  <i type="int" name="IALGO">    38</i>
  <i type="logical" name="ADDGRID"> T  </i>
  <i type="int" name="NELMIN">     5</i>
  <i type="int" name="IBRION">    -1</i>
  <i name="EDIFF">      0.00000001</i>
  <i name="ENCUT">    300.00000000</i>
  <i type="logical" name="LREAL"> F  </i>
  <i type="int" name="ISMEAR">     0</i>
  <i name="SIGMA">      0.05000000</i>
  <i type="logical" name="LWAVE"> F  </i>
  <i type="logical" name="LCHARG"> F  </i>
  <v type="int" name="KPOINT_BSE">    -1     0     0     0</v>
 </incar>
 <kpoints>
  <generation param="Monkhorst-Pack">
   <v type="int" name="divisions">       2        2        2 </v>
   <v name="usershift">      0.00000000       0.00000000       0.00000000 </v>
   <v name="genvec1">      0.50000000       0.00000000       0.00000000 </v>
   <v name="genvec2">      0.00000000       0.50000000       0.00000000 </v>
   <v name="genvec3">      0.00000000       0.00000000       0.50000000 </v>
   <v name="shift">      0.50000000       0.50000000       0.50000000 </v>
  </generation>
  <varray name="kpointlist" >
   <v>       0.25000000       0.25000000       0.25000000 </v>
   <v>      -0.25000000       0.25000000       0.25000000 </v>
   <v>       0.25000000      -0.25000000       0.25000000 </v>
   <v>      -0.25000000      -0.25000000       0.25000000 </v>
  </varray>
  <varray name="weights" >
   <v>       0.25000000 </v>
   <v>       0.25000000 </v>
   <v>       0.25000000 </v>
   <v>       0.25000000 </v>
  </varray>
 </kpoints>
 <parameters>
  <separator name="general" >
   <i type="string" name="SYSTEM">unknown system</i>
   <i type="logical" name="LCOMPAT"> F  </i>
  </separator>
  <separator name="electronic" >
   <i type="string" name="PREC">accura</i>
   <i name="ENMAX">    300.00000000</i>
   <i name="ENAUG">    322.06900000</i>
   <i name="EDIFF">      0.00000001</i>
   <i type="int" name="IALGO">    38</i>
   <i type="int" name="IWAVPR">    10</i>
   <i type="int" name="NBANDS">   164</i>
   <i name="NELECT">    256.00000000</i>
   <i type="int" name="TURBO">     0</i>
   <i type="int" name="IRESTART">     0</i>
   <i type="int" name="NREBOOT">     0</i>
   <i type="int" name="NMIN">     0</i>
   <i name="EREF">      0.00000000</i>
   <separator name="electronic smearing" >
    <i type="int" name="ISMEAR">     0</i>
    <i name="SIGMA">      0.05000000</i>
    <i name="KSPACING">      0.50000000</i>
    <i type="logical" name="KGAMMA"> T  </i>
   </separator>
   <separator name="electronic projectors" >
    <i type="logical" name="LREAL"> F  </i>
    <v name="ROPT">      0.00000000</v>
    <i type="int" name="LMAXPAW">  -100</i>
    <i type="int" name="LMAXMIX">     2</i>
    <i type="logical" name="NLSPLINE"> F  </i>
   </separator>
   <separator name="electronic startup" >
    <i type="int" name="ISTART">     0</i>
    <i type="int" name="ICHARG">     2</i>
    <i type="int" name="INIWAV">     1</i>
   </separator>
   <separator name="electronic spin" >
    <i type="int" name="ISPIN">     1</i>
    <i type="logical" name="LNONCOLLINEAR"> F  </i>
    <v name="MAGMOM">      1.00000000      1.00000000      1.00000000      1.00000000      1.00000000      1.00000000      1.00000000      1.00000000      1.00000000      1.00000000      1.00000000      1.00000000      1.00000000      1.00000000      1.00000000      1.00000000      1.00000000      1.00000000      1.00000000      1.00000000
      1.00000000      1.00000000      1.00000000      1.00000000      1.00000000      1.00000000      1.00000000      1.00000000      1.00000000      1.00000000      1.00000000      1.00000000      1.00000000      1.00000000      1.00000000      1.00000000      1.00000000      1.00000000      1.00000000      1.00000000
      1.00000000      1.00000000      1.00000000      1.00000000      1.00000000      1.00000000      1.00000000      1.00000000      1.00000000      1.00000000      1.00000000      1.00000000      1.00000000      1.00000000      1.00000000      1.00000000      1.00000000      1.00000000      1.00000000      1.00000000
      1.00000000      1.00000000      1.00000000      1.00000000</v>
    <i name="NUPDOWN">     -1.00000000</i>
    <i type="logical" name="LSORBIT"> F  </i>
    <v name="SAXIS">      0.00000000      0.00000000      1.00000000</v>
    <i type="logical" name="LSPIRAL"> F  </i>
    <v name="QSPIRAL">      0.00000000      0.00000000      0.00000000</v>
    <i type="logical" name="LZEROZ"> F  </i>
   </separator>
   <separator name="electronic exchange-correlation" >
    <i type="logical" name="LASPH"> F  </i>
    <i type="logical" name="LMETAGGA"> F  </i>
   </separator>
   <separator name="electronic convergence" >
    <i type="int" name="NELM">    60</i>
    <i type="int" name="NELMDL">    -5</i>
    <i type="int" name="NELMIN">     5</i>
    <i name="ENINI">    300.00000000</i>
    <separator name="electronic convergence detail" >
     <i type="logical" name="LDIAG"> T  </i>
     <i type="logical" name="LSUBROT"> F  </i>
     <i name="WEIMIN">      0.00000000</i>
     <i name="EBREAK">      0.00000000</i>
     <i name="DEPER">      0.30000000</i>
     <i type="int" name="NRMM">     4</i>
     <i name="TIME">      0.40000000</i>
    </separator>
   </separator>
   <separator name="electronic mixer" >
    <i name="AMIX">      0.40000000</i>
    <i name="BMIX">      1.00000000</i>
    <i name="AMIN">      0.10000000</i>
    <i name="AMIX_MAG">      1.60000000</i>
    <i name="BMIX_MAG">      1.00000000</i>
    <separator name="electronic mixer details" >
     <i type="int" name="IMIX">     4</i>
     <i type="logical" name="MIXFIRST"> F  </i>
     <i type="int" name="MAXMIX">   -45</i>
     <i name="WC">    100.00000000</i>
     <i type="int" name="INIMIX">     1</i>
     <i type="int" name="MIXPRE">     1</i>
     <i type="int" name="MREMOVE">     5</i>
    </separator>
   </separator>
   <separator name="electronic dipolcorrection" >
    <i type="logical" name="LDIPOL"> F  </i>
    <i type="logical" name="LMONO"> F  </i>
    <i type="int" name="IDIPOL">     0</i>
    <i name="EPSILON">      1.00000000</i>
    <v name="DIPOL">   -100.00000000   -100.00000000   -100.00000000</v>
    <i name="EFIELD">      0.00000000</i>
   </separator>
  </separator>
  <separator name="grids" >
   <i type="int" name="NGX">    64</i>
   <i type="int" name="NGY">    64</i>
   <i type="int" name="NGZ">    64</i>
   <i type="int" name="NGXF">   128</i>
   <i type="int" name="NGYF">   128</i>
   <i type="int" name="NGZF">   128</i>
   <i type="logical" name="ADDGRID"> T  </i>
  </separator>
  <separator name="ionic" >
   <i type="int" name="NSW">     0</i>
   <i type="int" name="IBRION">    -1</i>
   <i type="int" name="ISIF">     2</i>
   <i name="PSTRESS">      0.00000000</i>
   <i name="EDIFFG">      0.00000010</i>
   <i type="int" name="NFREE">     0</i>
   <i name="POTIM">      0.50000000</i>
   <i name="SMASS">     -3.00000000</i>
   <i name="SCALEE">      1.00000000</i>
  </separator>
  <separator name="ionic md" >
   <i name="TEBEG">      0.00010000</i>
   <i name="TEEND">      0.00010000</i>
   <i type="int" name="NBLOCK">     1</i>
   <i type="int" name="KBLOCK">     1</i>
   <i type="int" name="NPACO">   256</i>
   <i name="APACO">     16.00000000</i>
  </separator>
  <separator name="symmetry" >
   <i type="int" name="ISYM">     2</i>
   <i name="SYMPREC">      0.00001000</i>
  </separator>
  <separator name="dos" >
   <i type="logical" name="LORBIT"> F  </i>
   <v name="RWIGS">     -1.00000000</v>
   <i type="int" name="NEDOS">   301</i>
   <i name="EMIN">     10.00000000</i>
   <i name="EMAX">    -10.00000000</i>
   <i name="EFERMI">      0.00000000</i>
  </separator>
  <separator name="writing" >
   <i type="int" name="NWRITE">     2</i>
   <i type="logical" name="LWAVE"> F  </i>
   <i type="logical" name="LCHARG"> F  </i>
   <i type="logical" name="LPARD"> F  </i>
   <i type="logical" name="LVTOT"> F  </i>
   <i type="logical" name="LVHAR"> F  </i>
   <i type="logical" name="LELF"> F  </i>
   <i type="logical" name="LOPTICS"> F  </i>
   <v name="STM">      0.00000000      0.00000000      0.00000000      0.00000000      0.00000000      0.00000000      0.00000000</v>
  </separator>
  <separator name="performance" >
   <i type="int" name="NPAR">     4</i>
   <i type="int" name="NSIM">     4</i>
   <i type="int" name="NBLK">    -1</i>
   <i type="logical" name="LPLANE"> T  </i>
   <i type="logical" name="LSCALAPACK"> T  </i>
   <i type="logical" name="LSCAAWARE"> F  </i>
   <i type="logical" name="LSCALU"> F  </i>
   <i type="logical" name="LASYNC"> F  </i>
   <i type="logical" name="LORBITALREAL"> F  </i>
  </separator>
  <separator name="miscellaneous" >
   <i type="int" name="IDIOT">     3</i>
   <i type="logical" name="LMUSIC"> F  </i>
   <v name="POMASS">     28.08500000</v>
   <v name="DARWINR">      0.00000000</v>
   <v name="DARWINV">      1.00000000</v>
   <i type="logical" name="LCORR"> T  </i>
  </separator>
  <i type="logical" name="GGA_COMPAT"> T  </i>
  <i type="logical" name="LBERRY"> F  </i>
  <i type="int" name="ICORELEVEL">     0</i>
  <i type="logical" name="LDAU"> F  </i>
  <i type="int" name="I_CONSTRAINED_M">     0</i>
  <separator name="electronic exchange-correlation" >
   <i type="string" name="GGA">--</i>
   <i type="int" name="VOSKOWN">     0</i>
   <i type="logical" name="LHFCALC"> F  </i>
   <i type="string" name="PRECFOCK"></i>
   <i type="logical" name="LSYMGRAD"> F  </i>
   <i type="logical" name="LHFONE"> F  </i>
   <i type="logical" name="LRHFCALC"> F  </i>
   <i type="logical" name="LTHOMAS"> F  </i>
   <i type="logical" name="LMODELHF"> F  </i>
   <i name="ENCUT4O">     -1.00000000</i>
   <i type="int" name="EXXOEP">     0</i>
   <i type="int" name="FOURORBIT">     0</i>
   <i name="AEXX">      0.00000000</i>
   <i name="HFALPHA">      0.00000000</i>
   <i name="MCALPHA">      0.00000000</i>
   <i name="ALDAX">      1.00000000</i>
   <i name="AGGAX">      1.00000000</i>
   <i name="ALDAC">      1.00000000</i>
   <i name="AGGAC">      1.00000000</i>
   <i type="int" name="NKREDX">     1</i>
   <i type="int" name="NKREDY">     1</i>
   <i type="int" name="NKREDZ">     1</i>
   <i type="logical" name="SHIFTRED"> F  </i>
   <i type="logical" name="ODDONLY"> F  </i>
   <i type="logical" name="EVENONLY"> F  </i>
   <i type="int" name="LMAXFOCK">     0</i>
   <i type="int" name="NMAXFOCKAE">     0</i>
   <i type="logical" name="LFOCKAEDFT"> F  </i>
   <i name="HFSCREEN">      0.00000000</i>
   <i name="HFSCREENC">      0.00000000</i>
   <i type="int" name="NBANDSGWLOW">     0</i>
  </separator>
  <separator name="vdW DFT" >
   <i type="logical" name="LUSE_VDW"> F  </i>
   <i name="Zab_VDW">     -0.84910000</i>
   <i name="PARAM1">      0.12340000</i>
   <i name="PARAM2">      1.00000000</i>
   <i name="PARAM3">      0.00000000</i>
  </separator>
  <separator name="model GW" >
   <i type="int" name="MODEL_GW">     0</i>
   <i name="MODEL_EPS0">     12.24990743</i>
   <i name="MODEL_ALPHA">      1.00000000</i>
  </separator>
  <separator name="linear response parameters" >
   <i type="logical" name="LEPSILON"> F  </i>
   <i type="logical" name="LRPA"> F  </i>
   <i type="logical" name="LNABLA"> F  </i>
   <i type="logical" name="LVEL"> F  </i>
   <i type="int" name="KINTER">     0</i>
   <i name="CSHIFT">      0.10000000</i>
   <i name="OMEGAMAX">     -1.00000000</i>
   <i name="DEG_THRESHOLD">      0.00200000</i>
  </separator>
  <separator name="orbital magnetization" >
   <i type="logical" name="NUCIND"> F  </i>
   <v name="MAGPOS">      0.00000000      0.00000000      0.00000000</v>
   <i type="logical" name="LNICSALL"> T  </i>
   <i type="logical" name="ORBITALMAG"> F  </i>
   <i type="logical" name="LMAGBLOCH"> F  </i>
   <i type="logical" name="LCHIMAG"> F  </i>
   <i type="logical" name="LGAUGE"> T  </i>
   <i type="int" name="MAGATOM">     0</i>
   <v name="MAGDIPOL">      0.00000000      0.00000000      0.00000000</v>
   <v name="AVECCONST">      0.00000000      0.00000000      0.00000000</v>
  </separator>
  <separator name="response functions" >
   <i type="logical" name="LADDER"> F  </i>
   <i type="logical" name="LFXC"> F  </i>
   <i type="logical" name="LHARTREE"> T  </i>
   <i type="int" name="IBSE">     0</i>
   <v type="int" name="KPOINT">    -1     0     0     0</v>
   <i type="logical" name="LTCTE"> F  </i>
   <i type="logical" name="LTETE"> F  </i>
   <i type="logical" name="LTRIPLET"> F  </i>
   <i type="logical" name="LFXCEPS"> F  </i>
   <i type="logical" name="LFXHEG"> F  </i>
   <i type="int" name="NATURALO">     0</i>
   <i type="logical" name="L2ORDER"> F  </i>
   <i type="logical" name="LUSEW"> F  </i>
   <i name="ENCUTGW">     -2.00000000</i>
   <i name="ENCUTGWSOFT">     -2.00000000</i>
   <i name="ENCUTLF">     -1.00000000</i>
   <i type="int" name="LMAXMP2">    -1</i>
   <i name="SCISSOR">      0.00000000</i>
   <i type="int" name="NOMEGA">     0</i>
   <i type="int" name="NOMEGAR">     0</i>
   <i type="int" name="NBANDSGW">    -1</i>
   <i type="int" name="NBANDSO">    -1</i>
   <i type="int" name="NBANDSV">    -1</i>
   <i type="int" name="NELM">     1</i>
   <i type="int" name="NELMHF">     1</i>
   <i type="int" name="DIM">     3</i>
   <i type="int" name="ANTIRES">     0</i>
   <i name="OMEGAMAX">    -30.00000000</i>
   <i name="OMEGAMIN">    -30.00000000</i>
   <i name="OMEGATL">   -200.00000000</i>
   <i type="int" name="OMEGAGRID">     0</i>
   <i name="CSHIFT">     -0.10000000</i>
   <i type="logical" name="SELFENERGY"> F  </i>
   <i type="logical" name="LSPECTRAL"> F  </i>
   <i type="logical" name="LSPECTRALGW"> F  </i>
   <i type="logical" name="LSINGLES"> F  </i>
   <i type="logical" name="LFERMIGW"> F  </i>
   <i type="logical" name="ODDONLYGW"> F  </i>
   <i type="logical" name="EVENONLYGW"> F  </i>
   <i type="int" name="NKREDLFX">     1</i>
   <i type="int" name="NKREDLFY">     1</i>
   <i type="int" name="NKREDLFZ">     1</i>
   <i type="int" name="MAXMEM">  1800</i>
   <i type="int" name="TELESCOPE">     0</i>
   <i type="int" name="TAUPAR">     1</i>
   <i type="int" name="OMEGAPAR">    -1</i>
   <i name="LAMBDA">      1.00000000</i>
  </separator>
  <separator name="External order field" >
   <i name="OFIELD_KAPPA">      0.00000000</i>
   <v name="OFIELD_K">      0.00000000      0.00000000      0.00000000</v>
   <i name="OFIELD_Q6_NEAR">      0.00000000</i>
   <i name="OFIELD_Q6_FAR">      0.00000000</i>
   <i name="OFIELD_A">      0.00000000</i>
  </separator>
 </parameters>
 <atominfo>
  <atoms>      64 </atoms>
  <types>       1 </types>
  <array name="atoms" >
   <dimension dim="1">ion</dimension>
   <field type="string">element</field>
   <field type="int">atomtype</field>
   <set>
    <rc><c>Si</c><c>   1</c></rc>
    <rc><c>Si</c><c>   1</c></rc>
    <rc><c>Si</c><c>   1</c></rc>
    <rc><c>Si</c><c>   1</c></rc>
    <rc><c>Si</c><c>   1</c></rc>
    <rc><c>Si</c><c>   1</c></rc>
    <rc><c>Si</c><c>   1</c></rc>
    <rc><c>Si</c><c>   1</c></rc>
    <rc><c>Si</c><c>   1</c></rc>
    <rc><c>Si</c><c>   1</c></rc>
    <rc><c>Si</c><c>   1</c></rc>
    <rc><c>Si</c><c>   1</c></rc>
    <rc><c>Si</c><c>   1</c></rc>
    <rc><c>Si</c><c>   1</c></rc>
    <rc><c>Si</c><c>   1</c></rc>
    <rc><c>Si</c><c>   1</c></rc>
    <rc><c>Si</c><c>   1</c></rc>
    <rc><c>Si</c><c>   1</c></rc>
    <rc><c>Si</c><c>   1</c></rc>
    <rc><c>Si</c><c>   1</c></rc>
    <rc><c>Si</c><c>   1</c></rc>
    <rc><c>Si</c><c>   1</c></rc>
    <rc><c>Si</c><c>   1</c></rc>
    <rc><c>Si</c><c>   1</c></rc>
    <rc><c>Si</c><c>   1</c></rc>
    <rc><c>Si</c><c>   1</c></rc>
    <rc><c>Si</c><c>   1</c></rc>
    <rc><c>Si</c><c>   1</c></rc>
    <rc><c>Si</c><c>   1</c></rc>
    <rc><c>Si</c><c>   1</c></rc>
    <rc><c>Si</c><c>   1</c></rc>
    <rc><c>Si</c><c>   1</c></rc>
    <rc><c>Si</c><c>   1</c></rc>
    <rc><c>Si</c><c>   1</c></rc>
    <rc><c>Si</c><c>   1</c></rc>
    <rc><c>Si</c><c>   1</c></rc>
    <rc><c>Si</c><c>   1</c></rc>
    <rc><c>Si</c><c>   1</c></rc>
    <rc><c>Si</c><c>   1</c></rc>
    <rc><c>Si</c><c>   1</c></rc>
    <rc><c>Si</c><c>   1</c></rc>
    <rc><c>Si</c><c>   1</c></rc>
    <rc><c>Si</c><c>   1</c></rc>
    <rc><c>Si</c><c>   1</c></rc>
    <rc><c>Si</c><c>   1</c></rc>
    <rc><c>Si</c><c>   1</c></rc>
    <rc><c>Si</c><c>   1</c></rc>
    <rc><c>Si</c><c>   1</c></rc>
    <rc><c>Si</c><c>   1</c></rc>
    <rc><c>Si</c><c>   1</c></rc>
    <rc><c>Si</c><c>   1</c></rc>
    <rc><c>Si</c><c>   1</c></rc>
    <rc><c>Si</c><c>   1</c></rc>
    <rc><c>Si</c><c>   1</c></rc>
    <rc><c>Si</c><c>   1</c></rc>
    <rc><c>Si</c><c>   1</c></rc>
    <rc><c>Si</c><c>   1</c></rc>
    <rc><c>Si</c><c>   1</c></rc>
    <rc><c>Si</c><c>   1</c></rc>
    <rc><c>Si</c><c>   1</c></rc>
    <rc><c>Si</c><c>   1</c></rc>
    <rc><c>Si</c><c>   1</c></rc>
    <rc><c>Si</c><c>   1</c></rc>
    <rc><c>Si</c><c>   1</c></rc>
   </set>
  </array>
  <array name="atomtypes" >
   <dimension dim="1">type</dimension>
   <field type="int">atomspertype</field>
   <field type="string">element</field>
   <field>mass</field>
   <field>valence</field>
   <field type="string">pseudopotential</field>
   <set>
    <rc><c>  64</c><c>Si</c><c>     28.08500000</c><c>      4.00000000</c><c>  PAW_PBE Si 05Jan2001                  </c></rc>
   </set>
  </array>
 </atominfo>
 <structure name="initialpos" >
  <crystal>
   <varray name="basis" >
    <v>      10.93252578       0.00000000       0.00000000 </v>
    <v>       0.00000000      10.93252578       0.00000000 </v>
    <v>       0.00000000       0.00000000      10.93252578 </v>
   </varray>
   <i name="volume">   1306.65679237 </i>
   <varray name="rec_basis" >
    <v>       0.09147017       0.00000000       0.00000000 </v>
    <v>       0.00000000       0.09147017       0.00000000 </v>
    <v>       0.00000000       0.00000000       0.09147017 </v>
   </varray>
  </crystal>
  <varray name="positions" >
   <v>       0.44024411       0.43750000       0.43750000 </v>
   <v>       0.93750000       0.43750000       0.43750000 </v>
   <v>       0.43750000       0.93750000       0.43750000 </v>
   <v>       0.93750000       0.93750000       0.43750000 </v>
   <v>       0.43750000       0.43750000       0.93750000 </v>
   <v>       0.93750000       0.43750000       0.93750000 </v>
   <v>       0.43750000       0.93750000       0.93750000 </v>
   <v>       0.93750000       0.93750000       0.93750000 </v>
   <v>       0.43750000       0.18750000       0.18750000 </v>
   <v>       0.93750000       0.18750000       0.18750000 </v>
   <v>       0.43750000       0.68750000       0.18750000 </v>
   <v>       0.93750000       0.68750000       0.18750000 </v>
   <v>       0.43750000       0.18750000       0.68750000 </v>
   <v>       0.93750000       0.18750000       0.68750000 </v>
   <v>       0.43750000       0.68750000       0.68750000 </v>
   <v>       0.93750000       0.68750000       0.68750000 </v>
   <v>       0.18750000       0.43750000       0.18750000 </v>
   <v>       0.68750000       0.43750000       0.18750000 </v>
   <v>       0.18750000       0.93750000       0.18750000 </v>
   <v>       0.68750000       0.93750000       0.18750000 </v>
   <v>       0.18750000       0.43750000       0.68750000 </v>
   <v>       0.68750000       0.43750000       0.68750000 </v>
   <v>       0.18750000       0.93750000       0.68750000 </v>
   <v>       0.68750000       0.93750000       0.68750000 </v>
   <v>       0.18750000       0.18750000       0.43750000 </v>
   <v>       0.68750000       0.18750000       0.43750000 </v>
   <v>       0.18750000       0.68750000       0.43750000 </v>
   <v>       0.68750000       0.68750000       0.43750000 </v>
   <v>       0.18750000       0.18750000       0.93750000 </v>
   <v>       0.68750000       0.18750000       0.93750000 </v>
   <v>       0.18750000       0.68750000       0.93750000 </v>
   <v>       0.68750000       0.68750000       0.93750000 </v>
   <v>       0.06250000       0.06250000       0.06250000 </v>
   <v>       0.56250000       0.06250000       0.06250000 </v>
   <v>       0.06250000       0.56250000       0.06250000 </v>
   <v>       0.56250000       0.56250000       0.06250000 </v>
   <v>       0.06250000       0.06250000       0.56250000 </v>
   <v>       0.56250000       0.06250000       0.56250000 </v>
   <v>       0.06250000       0.56250000       0.56250000 </v>
   <v>       0.56250000       0.56250000       0.56250000 </v>
   <v>       0.06250000       0.31250000       0.31250000 </v>
   <v>       0.56250000       0.31250000       0.31250000 </v>
   <v>       0.06250000       0.81250000       0.31250000 </v>
   <v>       0.56250000       0.81250000       0.31250000 </v>
   <v>       0.06250000       0.31250000       0.81250000 </v>
   <v>       0.56250000       0.31250000       0.81250000 </v>
   <v>       0.06250000       0.81250000       0.81250000 </v>
   <v>       0.56250000       0.81250000       0.81250000 </v>
   <v>       0.31250000       0.06524411       0.31250000 </v>
   <v>       0.81250000       0.06250000       0.31250000 </v>
   <v>       0.31250000       0.56250000       0.31250000 </v>
   <v>       0.81250000       0.56250000       0.31250000 </v>
   <v>       0.31250000       0.06250000       0.81250000 </v>
   <v>       0.81250000       0.06250000       0.81250000 </v>
   <v>       0.31250000       0.56250000       0.81250000 </v>
   <v>       0.81250000       0.56250000       0.81250000 </v>
   <v>       0.31250000       0.31250000       0.06250000 </v>
   <v>       0.81250000       0.31250000       0.06250000 </v>
   <v>       0.31250000       0.81250000       0.06250000 </v>
   <v>       0.81250000       0.81250000       0.06250000 </v>
   <v>       0.31250000       0.31250000       0.56250000 </v>
   <v>       0.81250000       0.31250000       0.56250000 </v>
   <v>       0.31250000       0.81250000       0.56250000 </v>
   <v>       0.81250000       0.81250000       0.56250000 </v>
  </varray>
 </structure>
 <calculation>
  <scstep>
   <time name="dav">    4.22    4.22</time>
   <time name="total">    4.40    4.40</time>
   <energy>
    <i name="alphaZ">    105.52440745 </i>
    <i name="ewald">  -7265.47275114 </i>
    <i name="hartreedc">   -361.71094176 </i>
    <i name="XCdc">   -597.75714873 </i>
    <i name="pawpsdc">   5639.92317535 </i>
    <i name="pawaedc">  -4513.95313856 </i>
    <i name="eentropy">     -0.00117139 </i>
    <i name="bandstr">    856.87056996 </i>
    <i name="atom">   6596.14994790 </i>
    <i name="e_fr_energy">    459.57294908 </i>
    <i name="e_wo_entrp">    459.57412048 </i>
    <i name="e_0_energy">    459.57353478 </i>
   </energy>
  </scstep>
  <scstep>
   <time name="dav">    4.84    4.84</time>
   <time name="total">    4.84    4.85</time>
   <energy>
    <i name="e_fr_energy">   -300.08564576 </i>
    <i name="e_wo_entrp">   -300.08564576 </i>
    <i name="e_0_energy">   -300.08564576 </i>
   </energy>
  </scstep>
  <scstep>
   <time name="dav">    4.89    4.89</time>
   <time name="total">    4.89    4.90</time>
   <energy>
    <i name="e_fr_energy">   -351.03313736 </i>
    <i name="e_wo_entrp">   -351.03313736 </i>
    <i name="e_0_energy">   -351.03313736 </i>
   </energy>
  </scstep>
  <scstep>
   <time name="dav">    4.86    4.86</time>
   <time name="total">    4.86    4.87</time>
   <energy>
    <i name="e_fr_energy">   -352.27033092 </i>
    <i name="e_wo_entrp">   -352.27033092 </i>
    <i name="e_0_energy">   -352.27033092 </i>
   </energy>
  </scstep>
  <scstep>
   <time name="dav">    4.83    4.83</time>
   <time name="total">    5.06    5.07</time>
   <energy>
    <i name="e_fr_energy">   -352.31306819 </i>
    <i name="e_wo_entrp">   -352.31306819 </i>
    <i name="e_0_energy">   -352.31306819 </i>
   </energy>
  </scstep>
  <scstep>
   <time name="dav">    4.71    4.71</time>
   <time name="total">    5.12    5.12</time>
   <energy>
    <i name="e_fr_energy">   -348.58463832 </i>
    <i name="e_wo_entrp">   -348.58463832 </i>
    <i name="e_0_energy">   -348.58463832 </i>
   </energy>
  </scstep>
  <scstep>
   <time name="dav">    4.69    4.69</time>
   <time name="total">    5.10    5.10</time>
   <energy>
    <i name="e_fr_energy">   -346.87181805 </i>
    <i name="e_wo_entrp">   -346.87181805 </i>
    <i name="e_0_energy">   -346.87181805 </i>
   </energy>
  </scstep>
  <scstep>
   <time name="dav">    4.76    4.76</time>
   <time name="total">    5.17    5.18</time>
   <energy>
    <i name="e_fr_energy">   -346.89814753 </i>
    <i name="e_wo_entrp">   -346.89814753 </i>
    <i name="e_0_energy">   -346.89814753 </i>
   </energy>
  </scstep>
  <scstep>
   <time name="dav">    4.92    4.91</time>
   <time name="total">    5.32    5.33</time>
   <energy>
    <i name="e_fr_energy">   -346.90483658 </i>
    <i name="e_wo_entrp">   -346.90483658 </i>
    <i name="e_0_energy">   -346.90483658 </i>
   </energy>
  </scstep>
  <scstep>
   <time name="dav">    4.56    4.56</time>
   <time name="total">    4.97    4.97</time>
   <energy>
    <i name="e_fr_energy">   -346.90689333 </i>
    <i name="e_wo_entrp">   -346.90689333 </i>
    <i name="e_0_energy">   -346.90689333 </i>
   </energy>
  </scstep>
  <scstep>
   <time name="dav">    4.83    4.83</time>
   <time name="total">    5.24    5.24</time>
   <energy>
    <i name="e_fr_energy">   -346.90687138 </i>
    <i name="e_wo_entrp">   -346.90687138 </i>
    <i name="e_0_energy">   -346.90687138 </i>
   </energy>
  </scstep>
  <scstep>
   <time name="dav">    4.75    4.75</time>
   <time name="total">    5.16    5.18</time>
   <energy>
    <i name="e_fr_energy">   -346.90688592 </i>
    <i name="e_wo_entrp">   -346.90688592 </i>
    <i name="e_0_energy">   -346.90688592 </i>
   </energy>
  </scstep>
  <scstep>
   <time name="dav">    4.72    4.72</time>
   <time name="total">    5.14    5.14</time>
   <energy>
    <i name="e_fr_energy">   -346.90688655 </i>
    <i name="e_wo_entrp">   -346.90688655 </i>
    <i name="e_0_energy">   -346.90688655 </i>
   </energy>
  </scstep>
  <scstep>
   <time name="dav">    4.86    4.86</time>
   <time name="total">    5.27    5.28</time>
   <energy>
    <i name="e_fr_energy">   -346.90688710 </i>
    <i name="e_wo_entrp">   -346.90688710 </i>
    <i name="e_0_energy">   -346.90688710 </i>
   </energy>
  </scstep>
  <scstep>
   <time name="dav">    3.97    3.97</time>
   <time name="total">    4.38    4.39</time>
   <energy>
    <i name="e_fr_energy">   -346.90688687 </i>
    <i name="e_wo_entrp">   -346.90688687 </i>
    <i name="e_0_energy">   -346.90688687 </i>
   </energy>
  </scstep>
  <scstep>
   <time name="dav">    3.27    3.27</time>
   <time name="total">    3.68    3.72</time>
   <energy>
    <i name="e_fr_energy">   -346.90688693 </i>
    <i name="e_wo_entrp">   -346.90688693 </i>
    <i name="e_0_energy">   -346.90688693 </i>
   </energy>
  </scstep>
  <scstep>
   <time name="dav">    3.25    3.25</time>
   <time name="total">    3.66    3.68</time>
   <energy>
    <i name="e_fr_energy">   -346.90688691 </i>
    <i name="e_wo_entrp">   -346.90688691 </i>
    <i name="e_0_energy">   -346.90688691 </i>
   </energy>
  </scstep>
  <scstep>
   <time name="dav">    3.20    3.20</time>
   <time name="total">    3.61    3.61</time>
   <energy>
    <i name="e_fr_energy">   -346.90688692 </i>
    <i name="e_wo_entrp">   -346.90688692 </i>
    <i name="e_0_energy">   -346.90688692 </i>
   </energy>
  </scstep>
  <scstep>
   <time name="dav">    3.19    3.19</time>
   <time name="total">    3.37    3.38</time>
   <energy>
    <i name="alphaZ">    105.52440745 </i>
    <i name="ewald">  -7265.47275114 </i>
    <i name="hartreedc">   -485.14172542 </i>
    <i name="XCdc">   -577.61229277 </i>
    <i name="pawpsdc">  27883.43505162 </i>
    <i name="pawaedc"> -26764.15298041 </i>
    <i name="eentropy">      0.00000000 </i>
    <i name="bandstr">    160.36345585 </i>
    <i name="atom">   6596.14994790 </i>
    <i name="e_fr_energy">   -346.90688693 </i>
    <i name="e_wo_entrp">   -346.90688693 </i>
    <i name="e_0_energy">   -346.90688693 </i>
   </energy>
  </scstep>
  <structure>
   <crystal>
    <varray name="basis" >
     <v>      10.93252578       0.00000000       0.00000000 </v>
     <v>       0.00000000      10.93252578       0.00000000 </v>
     <v>       0.00000000       0.00000000      10.93252578 </v>
    </varray>
    <i name="volume">   1306.65679237 </i>
    <varray name="rec_basis" >
     <v>       0.09147017       0.00000000       0.00000000 </v>
     <v>       0.00000000       0.09147017       0.00000000 </v>
     <v>       0.00000000       0.00000000       0.09147017 </v>
    </varray>
   </crystal>
   <varray name="positions" >
    <v>       0.44024411       0.43750000       0.43750000 </v>
    <v>       0.93750000       0.43750000       0.43750000 </v>
    <v>       0.43750000       0.93750000       0.43750000 </v>
    <v>       0.93750000       0.93750000       0.43750000 </v>
    <v>       0.43750000       0.43750000       0.93750000 </v>
    <v>       0.93750000       0.43750000       0.93750000 </v>
    <v>       0.43750000       0.93750000       0.93750000 </v>
    <v>       0.93750000       0.93750000       0.93750000 </v>
    <v>       0.43750000       0.18750000       0.18750000 </v>
    <v>       0.93750000       0.18750000       0.18750000 </v>
    <v>       0.43750000       0.68750000       0.18750000 </v>
    <v>       0.93750000       0.68750000       0.18750000 </v>
    <v>       0.43750000       0.18750000       0.68750000 </v>
    <v>       0.93750000       0.18750000       0.68750000 </v>
    <v>       0.43750000       0.68750000       0.68750000 </v>
    <v>       0.93750000       0.68750000       0.68750000 </v>
    <v>       0.18750000       0.43750000       0.18750000 </v>
    <v>       0.68750000       0.43750000       0.18750000 </v>
    <v>       0.18750000       0.93750000       0.18750000 </v>
    <v>       0.68750000       0.93750000       0.18750000 </v>
    <v>       0.18750000       0.43750000       0.68750000 </v>
    <v>       0.68750000       0.43750000       0.68750000 </v>
    <v>       0.18750000       0.93750000       0.68750000 </v>
    <v>       0.68750000       0.93750000       0.68750000 </v>
    <v>       0.18750000       0.18750000       0.43750000 </v>
    <v>       0.68750000       0.18750000       0.43750000 </v>
    <v>       0.18750000       0.68750000       0.43750000 </v>
    <v>       0.68750000       0.68750000       0.43750000 </v>
    <v>       0.18750000       0.18750000       0.93750000 </v>
    <v>       0.68750000       0.18750000       0.93750000 </v>
    <v>       0.18750000       0.68750000       0.93750000 </v>
    <v>       0.68750000       0.68750000       0.93750000 </v>
    <v>       0.06250000       0.06250000       0.06250000 </v>
    <v>       0.56250000       0.06250000       0.06250000 </v>
    <v>       0.06250000       0.56250000       0.06250000 </v>
    <v>       0.56250000       0.56250000       0.06250000 </v>
    <v>       0.06250000       0.06250000       0.56250000 </v>
    <v>       0.56250000       0.06250000       0.56250000 </v>
    <v>       0.06250000       0.56250000       0.56250000 </v>
    <v>       0.56250000       0.56250000       0.56250000 </v>
    <v>       0.06250000       0.31250000       0.31250000 </v>
    <v>       0.56250000       0.31250000       0.31250000 </v>
    <v>       0.06250000       0.81250000       0.31250000 </v>
    <v>       0.56250000       0.81250000       0.31250000 </v>
    <v>       0.06250000       0.31250000       0.81250000 </v>
    <v>       0.56250000       0.31250000       0.81250000 </v>
    <v>       0.06250000       0.81250000       0.81250000 </v>
    <v>       0.56250000       0.81250000       0.81250000 </v>
    <v>       0.31250000       0.06524411       0.31250000 </v>
    <v>       0.81250000       0.06250000       0.31250000 </v>
    <v>       0.31250000       0.56250000       0.31250000 </v>
    <v>       0.81250000       0.56250000       0.31250000 </v>
    <v>       0.31250000       0.06250000       0.81250000 </v>
    <v>       0.81250000       0.06250000       0.81250000 </v>
    <v>       0.31250000       0.56250000       0.81250000 </v>
    <v>       0.81250000       0.56250000       0.81250000 </v>
    <v>       0.31250000       0.31250000       0.06250000 </v>
    <v>       0.81250000       0.31250000       0.06250000 </v>
    <v>       0.31250000       0.81250000       0.06250000 </v>
    <v>       0.81250000       0.81250000       0.06250000 </v>
    <v>       0.31250000       0.31250000       0.56250000 </v>
    <v>       0.81250000       0.31250000       0.56250000 </v>
    <v>       0.31250000       0.81250000       0.56250000 </v>
    <v>       0.81250000       0.81250000       0.56250000 </v>
   </varray>
  </structure>
  <varray name="forces" >
   <v>      -0.38800500      -0.00027706      -0.00094141 </v>
   <v>      -0.00008934       0.00066186      -0.00070358 </v>
   <v>      -0.05964325       0.09306979      -0.06096218 </v>
   <v>      -0.00106756      -0.00143461      -0.00124719 </v>
   <v>       0.00061011       0.00066261      -0.00063834 </v>
   <v>      -0.00092248      -0.00053530      -0.00074465 </v>
   <v>      -0.01279371      -0.00143191      -0.00088465 </v>
   <v>      -0.00009976       0.00613602      -0.00067492 </v>
   <v>       0.05322360       0.09856531      -0.06331658 </v>
   <v>       0.00089743      -0.00124918      -0.00098471 </v>
   <v>      -0.01186551       0.00238946      -0.00357923 </v>
   <v>       0.00060048       0.00085191      -0.00088550 </v>
   <v>      -0.01156474      -0.00413872       0.00174272 </v>
   <v>       0.00068345       0.00597673      -0.00045245 </v>
   <v>      -0.01222323      -0.00215316      -0.00337213 </v>
   <v>       0.00072946      -0.00076253      -0.00098198 </v>
   <v>       0.00655400      -0.00294763       0.00646499 </v>
   <v>       0.00644268      -0.00210530      -0.00498018 </v>
   <v>       0.06198404       0.09284252       0.05909765 </v>
   <v>       0.00191007      -0.00165959       0.00309385 </v>
   <v>       0.00635537       0.00332920      -0.00491827 </v>
   <v>       0.00654984       0.00223589       0.00643580 </v>
   <v>       0.00226295      -0.00120204       0.00275044 </v>
   <v>       0.00169489       0.00636468      -0.00116961 </v>
   <v>      -0.06046264       0.10136101       0.06343771 </v>
   <v>       0.00487712      -0.00716172      -0.00156391 </v>
   <v>       0.00473752      -0.00583653       0.00357835 </v>
   <v>       0.00520085       0.00630788       0.00342398 </v>
   <v>      -0.00019462      -0.00333709       0.00069417 </v>
   <v>       0.00033713       0.00806047       0.00045623 </v>
   <v>       0.00036247       0.00248017       0.00083224 </v>
   <v>       0.00026665      -0.00238268       0.00098318 </v>
   <v>      -0.00320115      -0.01202029      -0.00190860 </v>
   <v>       0.00344537      -0.01220197       0.00344679 </v>
   <v>       0.00038449       0.00065238       0.00036692 </v>
   <v>      -0.00170330       0.00118769       0.00115153 </v>
   <v>       0.00338224      -0.01228278      -0.00212109 </v>
   <v>       0.00118935      -0.01185087       0.00387551 </v>
   <v>      -0.00004939       0.00088717       0.00068400 </v>
   <v>       0.09602315       0.06610991       0.06635174 </v>
   <v>      -0.00596303       0.00489254       0.00185680 </v>
   <v>       0.10149842      -0.06029126      -0.06886752 </v>
   <v>       0.00617482       0.00504943       0.00201812 </v>
   <v>      -0.00703803       0.00472288      -0.00388684 </v>
   <v>       0.00246556       0.00036923      -0.00037002 </v>
   <v>      -0.00332228      -0.00019011      -0.00115407 </v>
   <v>      -0.00239648       0.00026238      -0.00052491 </v>
   <v>       0.00807183       0.00033113      -0.00091722 </v>
   <v>      -0.00144886      -0.38802038       0.00124613 </v>
   <v>       0.00066166       0.00067545       0.00070962 </v>
   <v>       0.09307091      -0.06040850       0.06096855 </v>
   <v>      -0.00027666      -0.00108225       0.00089914 </v>
   <v>       0.00613505       0.00064474       0.00067503 </v>
   <v>      -0.00053298      -0.01229330       0.00074436 </v>
   <v>      -0.00143198      -0.00142223       0.00088986 </v>
   <v>       0.00066240      -0.00013096       0.00063893 </v>
   <v>       0.00133316       0.00704560      -0.00658454 </v>
   <v>       0.00089275       0.00172888       0.00120799 </v>
   <v>       0.00881365       0.00631900       0.00488619 </v>
   <v>      -0.00030402       0.00176186      -0.00260764 </v>
   <v>       0.09029203       0.06676148      -0.05526159 </v>
   <v>      -0.00050493       0.00192471      -0.00275024 </v>
   <v>      -0.00410405       0.00653354      -0.00680571 </v>
   <v>       0.00043203       0.00165444       0.00115297 </v>
  </varray>
  <varray name="stress" >
   <v>       0.00166000       0.00004128      -0.33494529 </v>
   <v>       0.00004129       0.00163561       0.33493593 </v>
   <v>      -0.33494529       0.33493593       0.02087136 </v>
  </varray>
  <energy>
   <i name="e_fr_energy">   -346.90688693 </i>
   <i name="e_wo_entrp">   -346.90688693 </i>
   <i name="e_0_energy">      0.00000000 </i>
  </energy>
  <time name="totalsc">   99.25   99.41</time>
  <eigenvalues>
   <array>
    <dimension dim="1">band</dimension>
    <dimension dim="2">kpoint</dimension>
    <dimension dim="3">spin</dimension>
    <field>eigene</field>
    <field>occ</field>
    <set>
     <set comment="spin 1">
      <set comment="kpoint 1">
       <r>   -5.9932    1.0000 </r>
       <r>   -5.4687    1.0000 </r>
       <r>   -5.4643    1.0000 </r>
       <r>   -5.4613    1.0000 </r>
       <r>   -4.9694    1.0000 </r>
       <r>   -4.9651    1.0000 </r>
       <r>   -4.9621    1.0000 </r>
       <r>   -4.5324    1.0000 </r>
       <r>   -4.4363    1.0000 </r>
       <r>   -4.4318    1.0000 </r>
       <r>   -4.4292    1.0000 </r>
       <r>   -4.0266    1.0000 </r>
       <r>   -4.0174    1.0000 </r>
       <r>   -4.0164    1.0000 </r>
       <r>   -4.0157    1.0000 </r>
       <r>   -4.0135    1.0000 </r>
       <r>   -4.0091    1.0000 </r>
       <r>   -3.8285    1.0000 </r>
       <r>   -3.8244    1.0000 </r>
       <r>   -3.8200    1.0000 </r>
       <r>   -3.3326    1.0000 </r>
       <r>   -3.3280    1.0000 </r>
       <r>   -3.3245    1.0000 </r>
       <r>   -2.9641    1.0000 </r>
       <r>   -2.9591    1.0000 </r>
       <r>   -2.9545    1.0000 </r>
       <r>   -2.7997    1.0000 </r>
       <r>   -2.7918    1.0000 </r>
       <r>   -2.7911    1.0000 </r>
       <r>   -2.7903    1.0000 </r>
       <r>   -2.7884    1.0000 </r>
       <r>   -2.7836    1.0000 </r>
       <r>   -1.2577    1.0000 </r>
       <r>   -1.2517    1.0000 </r>
       <r>   -1.2493    1.0000 </r>
       <r>   -1.2482    1.0000 </r>
       <r>   -1.2464    1.0000 </r>
       <r>   -1.2402    1.0000 </r>
       <r>   -1.1560    1.0000 </r>
       <r>   -1.1512    1.0000 </r>
       <r>   -1.1456    1.0000 </r>
       <r>   -1.0380    1.0000 </r>
       <r>   -1.0327    1.0000 </r>
       <r>   -1.0274    1.0000 </r>
       <r>   -0.9511    1.0000 </r>
       <r>   -0.9478    1.0000 </r>
       <r>   -0.9412    1.0000 </r>
       <r>   -0.2446    1.0000 </r>
       <r>   -0.1691    1.0000 </r>
       <r>   -0.1652    1.0000 </r>
       <r>   -0.1609    1.0000 </r>
       <r>   -0.1596    1.0000 </r>
       <r>   -0.1566    1.0000 </r>
       <r>   -0.1493    1.0000 </r>
       <r>    0.7103    1.0000 </r>
       <r>    0.7140    1.0000 </r>
       <r>    0.7186    1.0000 </r>
       <r>    1.0432    1.0000 </r>
       <r>    1.0471    1.0000 </r>
       <r>    1.0509    1.0000 </r>
       <r>    1.6523    1.0000 </r>
       <r>    1.6551    1.0000 </r>
       <r>    1.6559    1.0000 </r>
       <r>    1.6571    1.0000 </r>
       <r>    1.6597    1.0000 </r>
       <r>    1.6613    1.0000 </r>
       <r>    1.7136    1.0000 </r>
       <r>    1.7157    1.0000 </r>
       <r>    1.7191    1.0000 </r>
       <r>    2.2649    1.0000 </r>
       <r>    2.2679    1.0000 </r>
       <r>    2.2704    1.0000 </r>
       <r>    2.3641    1.0000 </r>
       <r>    2.3672    1.0000 </r>
       <r>    2.3706    1.0000 </r>
       <r>    2.3725    1.0000 </r>
       <r>    2.3744    1.0000 </r>
       <r>    2.3759    1.0000 </r>
       <r>    2.4212    1.0000 </r>
       <r>    2.4259    1.0000 </r>
       <r>    2.4282    1.0000 </r>
       <r>    2.7275    1.0000 </r>
       <r>    2.7332    1.0000 </r>
       <r>    2.7345    1.0000 </r>
       <r>    2.7359    1.0000 </r>
       <r>    2.7369    1.0000 </r>
       <r>    2.7416    1.0000 </r>
       <r>    2.9971    1.0000 </r>
       <r>    2.9989    1.0000 </r>
       <r>    3.0017    1.0000 </r>
       <r>    3.0095    1.0000 </r>
       <r>    3.0137    1.0000 </r>
       <r>    3.0173    1.0000 </r>
       <r>    3.3582    1.0000 </r>
       <r>    3.3619    1.0000 </r>
       <r>    3.3656    1.0000 </r>
       <r>    3.3803    1.0000 </r>
       <r>    3.3841    1.0000 </r>
       <r>    3.3888    1.0000 </r>
       <r>    3.4632    1.0000 </r>
       <r>    3.4663    1.0000 </r>
       <r>    3.4702    1.0000 </r>
       <r>    3.7341    1.0000 </r>
       <r>    3.7376    1.0000 </r>
       <r>    3.7412    1.0000 </r>
       <r>    3.7416    1.0000 </r>
       <r>    3.7442    1.0000 </r>
       <r>    3.7491    1.0000 </r>
       <r>    3.7771    1.0000 </r>
       <r>    3.7802    1.0000 </r>
       <r>    3.7847    1.0000 </r>
       <r>    4.0406    1.0000 </r>
       <r>    4.0948    1.0000 </r>
       <r>    4.0976    1.0000 </r>
       <r>    4.1014    1.0000 </r>
       <r>    4.3372    1.0000 </r>
       <r>    4.3407    1.0000 </r>
       <r>    4.3450    1.0000 </r>
       <r>    4.4024    1.0000 </r>
       <r>    4.4053    1.0000 </r>
       <r>    4.4102    1.0000 </r>
       <r>    4.5588    1.0000 </r>
       <r>    4.5669    1.0000 </r>
       <r>    4.8652    1.0000 </r>
       <r>    4.8696    1.0000 </r>
       <r>    4.8755    1.0000 </r>
       <r>    5.3451    1.0000 </r>
       <r>    5.3543    1.0000 </r>
       <r>    6.5603    0.0000 </r>
       <r>    6.5628    0.0000 </r>
       <r>    6.5670    0.0000 </r>
       <r>    7.0005    0.0000 </r>
       <r>    7.0032    0.0000 </r>
       <r>    7.0097    0.0000 </r>
       <r>    7.2337    0.0000 </r>
       <r>    7.4874    0.0000 </r>
       <r>    7.4894    0.0000 </r>
       <r>    7.4953    0.0000 </r>
       <r>    7.6153    0.0000 </r>
       <r>    7.6196    0.0000 </r>
       <r>    7.6237    0.0000 </r>
       <r>    7.7769    0.0000 </r>
       <r>    7.7794    0.0000 </r>
       <r>    7.7828    0.0000 </r>
       <r>    7.7989    0.0000 </r>
       <r>    7.8000    0.0000 </r>
       <r>    7.8050    0.0000 </r>
       <r>    8.0229    0.0000 </r>
       <r>    8.0267    0.0000 </r>
       <r>    8.0301    0.0000 </r>
       <r>    8.0319    0.0000 </r>
       <r>    8.0339    0.0000 </r>
       <r>    8.0375    0.0000 </r>
       <r>    8.0816    0.0000 </r>
       <r>    8.2923    0.0000 </r>
       <r>    8.2944    0.0000 </r>
       <r>    8.2984    0.0000 </r>
       <r>    8.4938    0.0000 </r>
       <r>    8.5002    0.0000 </r>
       <r>    8.5020    0.0000 </r>
       <r>    8.5032    0.0000 </r>
       <r>    8.5098    0.0000 </r>
       <r>    8.5191    0.0000 </r>
       <r>    8.5473    0.0000 </r>
      </set>
      <set comment="kpoint 2">
       <r>   -5.9931    1.0000 </r>
       <r>   -5.4674    1.0000 </r>
       <r>   -5.4648    1.0000 </r>
       <r>   -5.4624    1.0000 </r>
       <r>   -4.9681    1.0000 </r>
       <r>   -4.9653    1.0000 </r>
       <r>   -4.9631    1.0000 </r>
       <r>   -4.5313    1.0000 </r>
       <r>   -4.4345    1.0000 </r>
       <r>   -4.4321    1.0000 </r>
       <r>   -4.4297    1.0000 </r>
       <r>   -4.0256    1.0000 </r>
       <r>   -4.0205    1.0000 </r>
       <r>   -4.0154    1.0000 </r>
       <r>   -4.0149    1.0000 </r>
       <r>   -4.0133    1.0000 </r>
       <r>   -4.0117    1.0000 </r>
       <r>   -3.8293    1.0000 </r>
       <r>   -3.8239    1.0000 </r>
       <r>   -3.8217    1.0000 </r>
       <r>   -3.3294    1.0000 </r>
       <r>   -3.3263    1.0000 </r>
       <r>   -3.3240    1.0000 </r>
       <r>   -2.9651    1.0000 </r>
       <r>   -2.9576    1.0000 </r>
       <r>   -2.9559    1.0000 </r>
       <r>   -2.7985    1.0000 </r>
       <r>   -2.7956    1.0000 </r>
       <r>   -2.7897    1.0000 </r>
       <r>   -2.7895    1.0000 </r>
       <r>   -2.7871    1.0000 </r>
       <r>   -2.7863    1.0000 </r>
       <r>   -1.2560    1.0000 </r>
       <r>   -1.2530    1.0000 </r>
       <r>   -1.2471    1.0000 </r>
       <r>   -1.2462    1.0000 </r>
       <r>   -1.2446    1.0000 </r>
       <r>   -1.2437    1.0000 </r>
       <r>   -1.1560    1.0000 </r>
       <r>   -1.1485    1.0000 </r>
       <r>   -1.1461    1.0000 </r>
       <r>   -1.0343    1.0000 </r>
       <r>   -1.0321    1.0000 </r>
       <r>   -1.0267    1.0000 </r>
       <r>   -0.9556    1.0000 </r>
       <r>   -0.9511    1.0000 </r>
       <r>   -0.9456    1.0000 </r>
       <r>   -0.2481    1.0000 </r>
       <r>   -0.1673    1.0000 </r>
       <r>   -0.1626    1.0000 </r>
       <r>   -0.1585    1.0000 </r>
       <r>   -0.1555    1.0000 </r>
       <r>   -0.1548    1.0000 </r>
       <r>   -0.1534    1.0000 </r>
       <r>    0.7070    1.0000 </r>
       <r>    0.7124    1.0000 </r>
       <r>    0.7166    1.0000 </r>
       <r>    1.0455    1.0000 </r>
       <r>    1.0459    1.0000 </r>
       <r>    1.0500    1.0000 </r>
       <r>    1.6531    1.0000 </r>
       <r>    1.6547    1.0000 </r>
       <r>    1.6571    1.0000 </r>
       <r>    1.6578    1.0000 </r>
       <r>    1.6586    1.0000 </r>
       <r>    1.6606    1.0000 </r>
       <r>    1.7159    1.0000 </r>
       <r>    1.7167    1.0000 </r>
       <r>    1.7193    1.0000 </r>
       <r>    2.2631    1.0000 </r>
       <r>    2.2665    1.0000 </r>
       <r>    2.2679    1.0000 </r>
       <r>    2.3671    1.0000 </r>
       <r>    2.3691    1.0000 </r>
       <r>    2.3708    1.0000 </r>
       <r>    2.3731    1.0000 </r>
       <r>    2.3745    1.0000 </r>
       <r>    2.3772    1.0000 </r>
       <r>    2.4252    1.0000 </r>
       <r>    2.4264    1.0000 </r>
       <r>    2.4303    1.0000 </r>
       <r>    2.7295    1.0000 </r>
       <r>    2.7323    1.0000 </r>
       <r>    2.7350    1.0000 </r>
       <r>    2.7364    1.0000 </r>
       <r>    2.7368    1.0000 </r>
       <r>    2.7386    1.0000 </r>
       <r>    2.9985    1.0000 </r>
       <r>    2.9997    1.0000 </r>
       <r>    3.0024    1.0000 </r>
       <r>    3.0131    1.0000 </r>
       <r>    3.0136    1.0000 </r>
       <r>    3.0179    1.0000 </r>
       <r>    3.3570    1.0000 </r>
       <r>    3.3602    1.0000 </r>
       <r>    3.3630    1.0000 </r>
       <r>    3.3777    1.0000 </r>
       <r>    3.3821    1.0000 </r>
       <r>    3.3844    1.0000 </r>
       <r>    3.4652    1.0000 </r>
       <r>    3.4684    1.0000 </r>
       <r>    3.4696    1.0000 </r>
       <r>    3.7318    1.0000 </r>
       <r>    3.7339    1.0000 </r>
       <r>    3.7392    1.0000 </r>
       <r>    3.7412    1.0000 </r>
       <r>    3.7424    1.0000 </r>
       <r>    3.7435    1.0000 </r>
       <r>    3.7794    1.0000 </r>
       <r>    3.7827    1.0000 </r>
       <r>    3.7840    1.0000 </r>
       <r>    4.0367    1.0000 </r>
       <r>    4.0978    1.0000 </r>
       <r>    4.0989    1.0000 </r>
       <r>    4.1037    1.0000 </r>
       <r>    4.3401    1.0000 </r>
       <r>    4.3436    1.0000 </r>
       <r>    4.3451    1.0000 </r>
       <r>    4.3971    1.0000 </r>
       <r>    4.4016    1.0000 </r>
       <r>    4.4053    1.0000 </r>
       <r>    4.5617    1.0000 </r>
       <r>    4.5665    1.0000 </r>
       <r>    4.8690    1.0000 </r>
       <r>    4.8737    1.0000 </r>
       <r>    4.8754    1.0000 </r>
       <r>    5.3493    1.0000 </r>
       <r>    5.3547    1.0000 </r>
       <r>    6.5617    0.0000 </r>
       <r>    6.5653    0.0000 </r>
       <r>    6.5679    0.0000 </r>
       <r>    7.0011    0.0000 </r>
       <r>    7.0057    0.0000 </r>
       <r>    7.0087    0.0000 </r>
       <r>    7.2352    0.0000 </r>
       <r>    7.4887    0.0000 </r>
       <r>    7.4931    0.0000 </r>
       <r>    7.4950    0.0000 </r>
       <r>    7.6151    0.0000 </r>
       <r>    7.6170    0.0000 </r>
       <r>    7.6226    0.0000 </r>
       <r>    7.7776    0.0000 </r>
       <r>    7.7804    0.0000 </r>
       <r>    7.7828    0.0000 </r>
       <r>    7.7988    0.0000 </r>
       <r>    7.8006    0.0000 </r>
       <r>    7.8062    0.0000 </r>
       <r>    8.0220    0.0000 </r>
       <r>    8.0252    0.0000 </r>
       <r>    8.0280    0.0000 </r>
       <r>    8.0305    0.0000 </r>
       <r>    8.0327    0.0000 </r>
       <r>    8.0342    0.0000 </r>
       <r>    8.0836    0.0000 </r>
       <r>    8.2927    0.0000 </r>
       <r>    8.2958    0.0000 </r>
       <r>    8.2971    0.0000 </r>
       <r>    8.4945    0.0000 </r>
       <r>    8.4978    0.0000 </r>
       <r>    8.5014    0.0000 </r>
       <r>    8.5047    0.0000 </r>
       <r>    8.5068    0.0000 </r>
       <r>    8.5208    0.0000 </r>
       <r>    8.5387    0.0000 </r>
      </set>
      <set comment="kpoint 3">
       <r>   -5.9932    1.0000 </r>
       <r>   -5.4671    1.0000 </r>
       <r>   -5.4647    1.0000 </r>
       <r>   -5.4622    1.0000 </r>
       <r>   -4.9679    1.0000 </r>
       <r>   -4.9657    1.0000 </r>
       <r>   -4.9631    1.0000 </r>
       <r>   -4.5332    1.0000 </r>
       <r>   -4.4351    1.0000 </r>
       <r>   -4.4328    1.0000 </r>
       <r>   -4.4305    1.0000 </r>
       <r>   -4.0214    1.0000 </r>
       <r>   -4.0197    1.0000 </r>
       <r>   -4.0184    1.0000 </r>
       <r>   -4.0162    1.0000 </r>
       <r>   -4.0127    1.0000 </r>
       <r>   -4.0077    1.0000 </r>
       <r>   -3.8270    1.0000 </r>
       <r>   -3.8248    1.0000 </r>
       <r>   -3.8191    1.0000 </r>
       <r>   -3.3326    1.0000 </r>
       <r>   -3.3304    1.0000 </r>
       <r>   -3.3273    1.0000 </r>
       <r>   -2.9623    1.0000 </r>
       <r>   -2.9607    1.0000 </r>
       <r>   -2.9536    1.0000 </r>
       <r>   -2.7956    1.0000 </r>
       <r>   -2.7942    1.0000 </r>
       <r>   -2.7929    1.0000 </r>
       <r>   -2.7907    1.0000 </r>
       <r>   -2.7864    1.0000 </r>
       <r>   -2.7834    1.0000 </r>
       <r>   -1.2553    1.0000 </r>
       <r>   -1.2529    1.0000 </r>
       <r>   -1.2515    1.0000 </r>
       <r>   -1.2486    1.0000 </r>
       <r>   -1.2457    1.0000 </r>
       <r>   -1.2419    1.0000 </r>
       <r>   -1.1559    1.0000 </r>
       <r>   -1.1535    1.0000 </r>
       <r>   -1.1462    1.0000 </r>
       <r>   -1.0388    1.0000 </r>
       <r>   -1.0332    1.0000 </r>
       <r>   -1.0310    1.0000 </r>
       <r>   -0.9480    1.0000 </r>
       <r>   -0.9422    1.0000 </r>
       <r>   -0.9377    1.0000 </r>
       <r>   -0.2411    1.0000 </r>
       <r>   -0.1683    1.0000 </r>
       <r>   -0.1658    1.0000 </r>
       <r>   -0.1637    1.0000 </r>
       <r>   -0.1602    1.0000 </r>
       <r>   -0.1586    1.0000 </r>
       <r>   -0.1527    1.0000 </r>
       <r>    0.7119    1.0000 </r>
       <r>    0.7162    1.0000 </r>
       <r>    0.7216    1.0000 </r>
       <r>    1.0442    1.0000 </r>
       <r>    1.0482    1.0000 </r>
       <r>    1.0487    1.0000 </r>
       <r>    1.6525    1.0000 </r>
       <r>    1.6549    1.0000 </r>
       <r>    1.6563    1.0000 </r>
       <r>    1.6579    1.0000 </r>
       <r>    1.6591    1.0000 </r>
       <r>    1.6598    1.0000 </r>
       <r>    1.7128    1.0000 </r>
       <r>    1.7158    1.0000 </r>
       <r>    1.7168    1.0000 </r>
       <r>    2.2675    1.0000 </r>
       <r>    2.2684    1.0000 </r>
       <r>    2.2728    1.0000 </r>
       <r>    2.3642    1.0000 </r>
       <r>    2.3660    1.0000 </r>
       <r>    2.3689    1.0000 </r>
       <r>    2.3709    1.0000 </r>
       <r>    2.3729    1.0000 </r>
       <r>    2.3741    1.0000 </r>
       <r>    2.4201    1.0000 </r>
       <r>    2.4239    1.0000 </r>
       <r>    2.4252    1.0000 </r>
       <r>    2.7314    1.0000 </r>
       <r>    2.7320    1.0000 </r>
       <r>    2.7339    1.0000 </r>
       <r>    2.7346    1.0000 </r>
       <r>    2.7382    1.0000 </r>
       <r>    2.7405    1.0000 </r>
       <r>    2.9962    1.0000 </r>
       <r>    2.9987    1.0000 </r>
       <r>    2.9993    1.0000 </r>
       <r>    3.0096    1.0000 </r>
       <r>    3.0135    1.0000 </r>
       <r>    3.0140    1.0000 </r>
       <r>    3.3612    1.0000 </r>
       <r>    3.3634    1.0000 </r>
       <r>    3.3662    1.0000 </r>
       <r>    3.3842    1.0000 </r>
       <r>    3.3851    1.0000 </r>
       <r>    3.3935    1.0000 </r>
       <r>    3.4636    1.0000 </r>
       <r>    3.4648    1.0000 </r>
       <r>    3.4682    1.0000 </r>
       <r>    3.7394    1.0000 </r>
       <r>    3.7404    1.0000 </r>
       <r>    3.7409    1.0000 </r>
       <r>    3.7433    1.0000 </r>
       <r>    3.7480    1.0000 </r>
       <r>    3.7511    1.0000 </r>
       <r>    3.7771    1.0000 </r>
       <r>    3.7788    1.0000 </r>
       <r>    3.7827    1.0000 </r>
       <r>    4.0442    1.0000 </r>
       <r>    4.0931    1.0000 </r>
       <r>    4.0969    1.0000 </r>
       <r>    4.0974    1.0000 </r>
       <r>    4.3372    1.0000 </r>
       <r>    4.3383    1.0000 </r>
       <r>    4.3419    1.0000 </r>
       <r>    4.4060    1.0000 </r>
       <r>    4.4103    1.0000 </r>
       <r>    4.4151    1.0000 </r>
       <r>    4.5593    1.0000 </r>
       <r>    4.5642    1.0000 </r>
       <r>    4.8647    1.0000 </r>
       <r>    4.8665    1.0000 </r>
       <r>    4.8712    1.0000 </r>
       <r>    5.3448    1.0000 </r>
       <r>    5.3501    1.0000 </r>
       <r>    6.5597    0.0000 </r>
       <r>    6.5608    0.0000 </r>
       <r>    6.5649    0.0000 </r>
       <r>    7.0001    0.0000 </r>
       <r>    7.0031    0.0000 </r>
       <r>    7.0078    0.0000 </r>
       <r>    7.2323    0.0000 </r>
       <r>    7.4862    0.0000 </r>
       <r>    7.4883    0.0000 </r>
       <r>    7.4929    0.0000 </r>
       <r>    7.6164    0.0000 </r>
       <r>    7.6222    0.0000 </r>
       <r>    7.6241    0.0000 </r>
       <r>    7.7771    0.0000 </r>
       <r>    7.7789    0.0000 </r>
       <r>    7.7822    0.0000 </r>
       <r>    7.7981    0.0000 </r>
       <r>    7.8011    0.0000 </r>
       <r>    7.8022    0.0000 </r>
       <r>    8.0264    0.0000 </r>
       <r>    8.0290    0.0000 </r>
       <r>    8.0300    0.0000 </r>
       <r>    8.0336    0.0000 </r>
       <r>    8.0357    0.0000 </r>
       <r>    8.0384    0.0000 </r>
       <r>    8.0794    0.0000 </r>
       <r>    8.2927    0.0000 </r>
       <r>    8.2942    0.0000 </r>
       <r>    8.2973    0.0000 </r>
       <r>    8.4935    0.0000 </r>
       <r>    8.4994    0.0000 </r>
       <r>    8.5009    0.0000 </r>
       <r>    8.5063    0.0000 </r>
       <r>    8.5091    0.0000 </r>
       <r>    8.5182    0.0000 </r>
       <r>    8.5420    0.0000 </r>
      </set>
      <set comment="kpoint 4">
       <r>   -5.9932    1.0000 </r>
       <r>   -5.4673    1.0000 </r>
       <r>   -5.4654    1.0000 </r>
       <r>   -5.4616    1.0000 </r>
       <r>   -4.9680    1.0000 </r>
       <r>   -4.9661    1.0000 </r>
       <r>   -4.9625    1.0000 </r>
       <r>   -4.5322    1.0000 </r>
       <r>   -4.4351    1.0000 </r>
       <r>   -4.4331    1.0000 </r>
       <r>   -4.4291    1.0000 </r>
       <r>   -4.0246    1.0000 </r>
       <r>   -4.0196    1.0000 </r>
       <r>   -4.0173    1.0000 </r>
       <r>   -4.0150    1.0000 </r>
       <r>   -4.0142    1.0000 </r>
       <r>   -4.0080    1.0000 </r>
       <r>   -3.8286    1.0000 </r>
       <r>   -3.8243    1.0000 </r>
       <r>   -3.8200    1.0000 </r>
       <r>   -3.3318    1.0000 </r>
       <r>   -3.3287    1.0000 </r>
       <r>   -3.3246    1.0000 </r>
       <r>   -2.9640    1.0000 </r>
       <r>   -2.9592    1.0000 </r>
       <r>   -2.9545    1.0000 </r>
       <r>   -2.7988    1.0000 </r>
       <r>   -2.7936    1.0000 </r>
       <r>   -2.7920    1.0000 </r>
       <r>   -2.7898    1.0000 </r>
       <r>   -2.7883    1.0000 </r>
       <r>   -2.7825    1.0000 </r>
       <r>   -1.2574    1.0000 </r>
       <r>   -1.2517    1.0000 </r>
       <r>   -1.2503    1.0000 </r>
       <r>   -1.2461    1.0000 </r>
       <r>   -1.2455    1.0000 </r>
       <r>   -1.2424    1.0000 </r>
       <r>   -1.1561    1.0000 </r>
       <r>   -1.1510    1.0000 </r>
       <r>   -1.1457    1.0000 </r>
       <r>   -1.0380    1.0000 </r>
       <r>   -1.0328    1.0000 </r>
       <r>   -1.0274    1.0000 </r>
       <r>   -0.9538    1.0000 </r>
       <r>   -0.9463    1.0000 </r>
       <r>   -0.9400    1.0000 </r>
       <r>   -0.2446    1.0000 </r>
       <r>   -0.1693    1.0000 </r>
       <r>   -0.1634    1.0000 </r>
       <r>   -0.1618    1.0000 </r>
       <r>   -0.1568    1.0000 </r>
       <r>   -0.1553    1.0000 </r>
       <r>   -0.1540    1.0000 </r>
       <r>    0.7083    1.0000 </r>
       <r>    0.7144    1.0000 </r>
       <r>    0.7201    1.0000 </r>
       <r>    1.0429    1.0000 </r>
       <r>    1.0472    1.0000 </r>
       <r>    1.0512    1.0000 </r>
       <r>    1.6516    1.0000 </r>
       <r>    1.6546    1.0000 </r>
       <r>    1.6569    1.0000 </r>
       <r>    1.6576    1.0000 </r>
       <r>    1.6585    1.0000 </r>
       <r>    1.6622    1.0000 </r>
       <r>    1.7134    1.0000 </r>
       <r>    1.7163    1.0000 </r>
       <r>    1.7188    1.0000 </r>
       <r>    2.2648    1.0000 </r>
       <r>    2.2678    1.0000 </r>
       <r>    2.2705    1.0000 </r>
       <r>    2.3653    1.0000 </r>
       <r>    2.3668    1.0000 </r>
       <r>    2.3696    1.0000 </r>
       <r>    2.3729    1.0000 </r>
       <r>    2.3738    1.0000 </r>
       <r>    2.3764    1.0000 </r>
       <r>    2.4215    1.0000 </r>
       <r>    2.4245    1.0000 </r>
       <r>    2.4292    1.0000 </r>
       <r>    2.7298    1.0000 </r>
       <r>    2.7327    1.0000 </r>
       <r>    2.7344    1.0000 </r>
       <r>    2.7353    1.0000 </r>
       <r>    2.7371    1.0000 </r>
       <r>    2.7403    1.0000 </r>
       <r>    2.9969    1.0000 </r>
       <r>    2.9988    1.0000 </r>
       <r>    3.0012    1.0000 </r>
       <r>    3.0098    1.0000 </r>
       <r>    3.0139    1.0000 </r>
       <r>    3.0176    1.0000 </r>
       <r>    3.3587    1.0000 </r>
       <r>    3.3623    1.0000 </r>
       <r>    3.3644    1.0000 </r>
       <r>    3.3803    1.0000 </r>
       <r>    3.3840    1.0000 </r>
       <r>    3.3892    1.0000 </r>
       <r>    3.4638    1.0000 </r>
       <r>    3.4670    1.0000 </r>
       <r>    3.4690    1.0000 </r>
       <r>    3.7332    1.0000 </r>
       <r>    3.7393    1.0000 </r>
       <r>    3.7403    1.0000 </r>
       <r>    3.7422    1.0000 </r>
       <r>    3.7439    1.0000 </r>
       <r>    3.7483    1.0000 </r>
       <r>    3.7776    1.0000 </r>
       <r>    3.7814    1.0000 </r>
       <r>    3.7834    1.0000 </r>
       <r>    4.0407    1.0000 </r>
       <r>    4.0948    1.0000 </r>
       <r>    4.0977    1.0000 </r>
       <r>    4.1014    1.0000 </r>
       <r>    4.3379    1.0000 </r>
       <r>    4.3413    1.0000 </r>
       <r>    4.3439    1.0000 </r>
       <r>    4.4001    1.0000 </r>
       <r>    4.4058    1.0000 </r>
       <r>    4.4119    1.0000 </r>
       <r>    4.5587    1.0000 </r>
       <r>    4.5671    1.0000 </r>
       <r>    4.8659    1.0000 </r>
       <r>    4.8706    1.0000 </r>
       <r>    4.8738    1.0000 </r>
       <r>    5.3451    1.0000 </r>
       <r>    5.3544    1.0000 </r>
       <r>    6.5603    0.0000 </r>
       <r>    6.5628    0.0000 </r>
       <r>    6.5670    0.0000 </r>
       <r>    6.9995    0.0000 </r>
       <r>    7.0062    0.0000 </r>
       <r>    7.0075    0.0000 </r>
       <r>    7.2337    0.0000 </r>
       <r>    7.4861    0.0000 </r>
       <r>    7.4920    0.0000 </r>
       <r>    7.4941    0.0000 </r>
       <r>    7.6153    0.0000 </r>
       <r>    7.6197    0.0000 </r>
       <r>    7.6238    0.0000 </r>
       <r>    7.7759    0.0000 </r>
       <r>    7.7800    0.0000 </r>
       <r>    7.7831    0.0000 </r>
       <r>    7.7986    0.0000 </r>
       <r>    7.8001    0.0000 </r>
       <r>    7.8053    0.0000 </r>
       <r>    8.0234    0.0000 </r>
       <r>    8.0265    0.0000 </r>
       <r>    8.0299    0.0000 </r>
       <r>    8.0323    0.0000 </r>
       <r>    8.0345    0.0000 </r>
       <r>    8.0363    0.0000 </r>
       <r>    8.0815    0.0000 </r>
       <r>    8.2917    0.0000 </r>
       <r>    8.2957    0.0000 </r>
       <r>    8.2976    0.0000 </r>
       <r>    8.4937    0.0000 </r>
       <r>    8.4997    0.0000 </r>
       <r>    8.5041    0.0000 </r>
       <r>    8.5057    0.0000 </r>
       <r>    8.5096    0.0000 </r>
       <r>    8.5105    0.0000 </r>
       <r>    8.5387    0.0000 </r>
      </set>
     </set>
    </set>
   </array>
  </eigenvalues>
  <separator name="orbital magnetization" >
   <v name="MAGDIPOLOUT">      0.00000000      0.00000000      0.00000000</v>
  </separator>
  <dos>
   <i name="efermi">      5.59893027 </i>
   <total>
    <array>
     <dimension dim="1">gridpoints</dimension>
     <dimension dim="2">spin</dimension>
     <field>energy</field>
     <field>total</field>
     <field>integrated</field>
     <set>
      <set comment="spin 1">
       <r>    -6.7203     0.0000     0.0000 </r>
       <r>    -6.6669     0.0000     0.0000 </r>
       <r>    -6.6136     0.0000     0.0000 </r>
       <r>    -6.5603     0.0000     0.0000 </r>
       <r>    -6.5070     0.0000     0.0000 </r>
       <r>    -6.4537     0.0000     0.0000 </r>
       <r>    -6.4004     0.0000     0.0000 </r>
       <r>    -6.3470     0.0000     0.0000 </r>
       <r>    -6.2937     0.0000     0.0000 </r>
       <r>    -6.2404     0.0000     0.0000 </r>
       <r>    -6.1871     0.0000     0.0000 </r>
       <r>    -6.1338     0.0013     0.0001 </r>
       <r>    -6.0805     0.2525     0.0135 </r>
       <r>    -6.0272     6.0545     0.3363 </r>
       <r>    -5.9738    20.2376     1.4153 </r>
       <r>    -5.9205    10.2178     1.9601 </r>
       <r>    -5.8672     0.7419     1.9996 </r>
       <r>    -5.8139     0.0069     2.0000 </r>
       <r>    -5.7606     0.0000     2.0000 </r>
       <r>    -5.7073     0.0000     2.0000 </r>
       <r>    -5.6539     0.0000     2.0000 </r>
       <r>    -5.6006     0.0071     2.0004 </r>
       <r>    -5.5473     1.1086     2.0595 </r>
       <r>    -5.4940    21.9186     3.2281 </r>
       <r>    -5.4407    61.5500     6.5096 </r>
       <r>    -5.3874    26.3245     7.9131 </r>
       <r>    -5.3341     1.6164     7.9993 </r>
       <r>    -5.2807     0.0127     8.0000 </r>
       <r>    -5.2274     0.0000     8.0000 </r>
       <r>    -5.1741     0.0000     8.0000 </r>
       <r>    -5.1208     0.0007     8.0000 </r>
       <r>    -5.0675     0.2249     8.0120 </r>
       <r>    -5.0142     9.3298     8.5094 </r>
       <r>    -4.9608    52.6161    11.3147 </r>
       <r>    -4.9075    44.6420    13.6948 </r>
       <r>    -4.8542     5.6298    13.9950 </r>
       <r>    -4.8009     0.0945    14.0000 </r>
       <r>    -4.7476     0.0002    14.0000 </r>
       <r>    -4.6943     0.0001    14.0000 </r>
       <r>    -4.6410     0.0396    14.0021 </r>
       <r>    -4.5876     2.1631    14.1174 </r>
       <r>    -4.5343    15.9123    14.9658 </r>
       <r>    -4.4810    26.2320    16.3644 </r>
       <r>    -4.4277    55.3756    19.3168 </r>
       <r>    -4.3744    44.6280    21.6961 </r>
       <r>    -4.3211     5.6058    21.9950 </r>
       <r>    -4.2677     0.0938    22.0000 </r>
       <r>    -4.2144     0.0002    22.0000 </r>
       <r>    -4.1611     0.0057    22.0003 </r>
       <r>    -4.1078     1.1784    22.0631 </r>
       <r>    -4.0545    31.0861    23.7205 </r>
       <r>    -4.0012   117.5581    29.9882 </r>
       <r>    -3.9479    69.1280    33.6737 </r>
       <r>    -3.8945     8.7466    34.1401 </r>
       <r>    -3.8412    33.0228    35.9007 </r>
       <r>    -3.7879    59.6853    39.0828 </r>
       <r>    -3.7346    16.5520    39.9653 </r>
       <r>    -3.6813     0.6474    39.9998 </r>
       <r>    -3.6280     0.0032    40.0000 </r>
       <r>    -3.5746     0.0000    40.0000 </r>
       <r>    -3.5213     0.0000    40.0000 </r>
       <r>    -3.4680     0.0046    40.0002 </r>
       <r>    -3.4147     0.8357    40.0448 </r>
       <r>    -3.3614    18.9501    41.0551 </r>
       <r>    -3.3081    60.8012    44.2968 </r>
       <r>    -3.2548    29.8039    45.8858 </r>
       <r>    -3.2014     2.1228    45.9990 </r>
       <r>    -3.1481     0.0196    46.0000 </r>
       <r>    -3.0948     0.0078    46.0004 </r>
       <r>    -3.0415     1.1572    46.0621 </r>
       <r>    -2.9882    22.2076    47.2461 </r>
       <r>    -2.9349    61.3884    50.5191 </r>
       <r>    -2.8815    27.3776    51.9787 </r>
       <r>    -2.8282    33.4856    53.7640 </r>
       <r>    -2.7749   118.1981    60.0658 </r>
       <r>    -2.7216    67.9116    63.6865 </r>
       <r>    -2.6683     5.8134    63.9965 </r>
       <r>    -2.6150     0.0662    64.0000 </r>
       <r>    -2.5617     0.0001    64.0000 </r>
       <r>    -2.5083     0.0000    64.0000 </r>
       <r>    -2.4550     0.0000    64.0000 </r>
       <r>    -2.4017     0.0000    64.0000 </r>
       <r>    -2.3484     0.0000    64.0000 </r>
       <r>    -2.2951     0.0000    64.0000 </r>
       <r>    -2.2418     0.0000    64.0000 </r>
       <r>    -2.1884     0.0000    64.0000 </r>
       <r>    -2.1351     0.0000    64.0000 </r>
       <r>    -2.0818     0.0000    64.0000 </r>
       <r>    -2.0285     0.0000    64.0000 </r>
       <r>    -1.9752     0.0000    64.0000 </r>
       <r>    -1.9219     0.0000    64.0000 </r>
       <r>    -1.8686     0.0000    64.0000 </r>
       <r>    -1.8152     0.0000    64.0000 </r>
       <r>    -1.7619     0.0000    64.0000 </r>
       <r>    -1.7086     0.0000    64.0000 </r>
       <r>    -1.6553     0.0000    64.0000 </r>
       <r>    -1.6020     0.0000    64.0000 </r>
       <r>    -1.5487     0.0000    64.0000 </r>
       <r>    -1.4953     0.0000    64.0000 </r>
       <r>    -1.4420     0.0000    64.0000 </r>
       <r>    -1.3887     0.0100    64.0005 </r>
       <r>    -1.3354     1.7170    64.0921 </r>
       <r>    -1.2821    37.9307    66.1144 </r>
       <r>    -1.2288   122.5836    72.6500 </r>
       <r>    -1.1755    86.0716    77.2389 </r>
       <r>    -1.1221    66.4115    80.7797 </r>
       <r>    -1.0688    39.1759    82.8683 </r>
       <r>    -1.0155    63.9007    86.2752 </r>
       <r>    -0.9622    67.0940    89.8524 </r>
       <r>    -0.9089    61.4330    93.1277 </r>
       <r>    -0.8556    15.7523    93.9675 </r>
       <r>    -0.8022     0.6060    93.9998 </r>
       <r>    -0.7489     0.0030    94.0000 </r>
       <r>    -0.6956     0.0000    94.0000 </r>
       <r>    -0.6423     0.0000    94.0000 </r>
       <r>    -0.5890     0.0000    94.0000 </r>
       <r>    -0.5357     0.0000    94.0000 </r>
       <r>    -0.4824     0.0000    94.0000 </r>
       <r>    -0.4290     0.0000    94.0000 </r>
       <r>    -0.3757     0.0040    94.0002 </r>
       <r>    -0.3224     0.5241    94.0282 </r>
       <r>    -0.2691     8.9114    94.5033 </r>
       <r>    -0.2158    33.7454    96.3024 </r>
       <r>    -0.1625   100.5761   101.6647 </r>
       <r>    -0.1091   101.4498   107.0735 </r>
       <r>    -0.0558    16.9769   107.9786 </r>
       <r>    -0.0025     0.3994   107.9999 </r>
       <r>     0.0508     0.0012   108.0000 </r>
       <r>     0.1041     0.0000   108.0000 </r>
       <r>     0.1574     0.0000   108.0000 </r>
       <r>     0.2107     0.0000   108.0000 </r>
       <r>     0.2641     0.0000   108.0000 </r>
       <r>     0.3174     0.0000   108.0000 </r>
       <r>     0.3707     0.0000   108.0000 </r>
       <r>     0.4240     0.0000   108.0000 </r>
       <r>     0.4773     0.0000   108.0000 </r>
       <r>     0.5306     0.0000   108.0000 </r>
       <r>     0.5840     0.0142   108.0008 </r>
       <r>     0.6373     1.7088   108.0919 </r>
       <r>     0.6906    26.7413   109.5176 </r>
       <r>     0.7439    61.2390   112.7826 </r>
       <r>     0.7972    21.7140   113.9403 </r>
       <r>     0.8505     1.1131   113.9996 </r>
       <r>     0.9038     0.0104   114.0002 </r>
       <r>     0.9572     0.6281   114.0336 </r>
       <r>     1.0105    16.3558   114.9057 </r>
       <r>     1.0638    59.6757   118.0873 </r>
       <r>     1.1171    33.1568   119.8551 </r>
       <r>     1.1704     2.6901   119.9985 </r>
       <r>     1.2237     0.0284   120.0000 </r>
       <r>     1.2771     0.0000   120.0000 </r>
       <r>     1.3304     0.0000   120.0000 </r>
       <r>     1.3837     0.0000   120.0000 </r>
       <r>     1.4370     0.0000   120.0000 </r>
       <r>     1.4903     0.0003   120.0000 </r>
       <r>     1.5436     0.1581   120.0084 </r>
       <r>     1.5969    10.1272   120.5484 </r>
       <r>     1.6503    89.0924   125.2984 </r>
       <r>     1.7036   145.1409   133.0366 </r>
       <r>     1.7569    78.4603   137.2198 </r>
       <r>     1.8102    14.1859   137.9761 </r>
       <r>     1.8635     0.4466   137.9999 </r>
       <r>     1.9168     0.0018   138.0000 </r>
       <r>     1.9702     0.0000   138.0000 </r>
       <r>     2.0235     0.0000   138.0000 </r>
       <r>     2.0768     0.0000   138.0000 </r>
       <r>     2.1301     0.0058   138.0003 </r>
       <r>     2.1834     0.9731   138.0522 </r>
       <r>     2.2367    20.5348   139.1470 </r>
       <r>     2.2900    63.8881   142.5532 </r>
       <r>     2.3434    76.0925   146.6101 </r>
       <r>     2.3967   147.3868   154.4681 </r>
       <r>     2.4500   111.1322   160.3932 </r>
       <r>     2.5033    28.5621   161.9160 </r>
       <r>     2.5566     1.5641   161.9994 </r>
       <r>     2.6099     0.0607   162.0026 </r>
       <r>     2.6633     4.8595   162.2617 </r>
       <r>     2.7166    63.1872   165.6305 </r>
       <r>     2.7699   120.3715   172.0482 </r>
       <r>     2.8232    35.1484   173.9221 </r>
       <r>     2.8765     1.4889   174.0015 </r>
       <r>     2.9298     3.8234   174.2054 </r>
       <r>     2.9831    54.7756   177.1258 </r>
       <r>     3.0365   120.8013   183.5663 </r>
       <r>     3.0898    43.2704   185.8733 </r>
       <r>     3.1431     2.3589   185.9991 </r>
       <r>     3.1964     0.0176   186.0000 </r>
       <r>     3.2497     0.0968   186.0052 </r>
       <r>     3.3030     6.6239   186.3583 </r>
       <r>     3.3564    66.9030   189.9253 </r>
       <r>     3.4097   120.5844   196.3543 </r>
       <r>     3.4630    80.7632   200.6602 </r>
       <r>     3.5163    53.5816   203.5169 </r>
       <r>     3.5696     8.8555   203.9891 </r>
       <r>     3.6229     0.3079   204.0055 </r>
       <r>     3.6762     7.7873   204.4207 </r>
       <r>     3.7296    84.1002   208.9045 </r>
       <r>     3.7829   164.6055   217.6805 </r>
       <r>     3.8362    73.4968   221.5990 </r>
       <r>     3.8895     7.3959   221.9933 </r>
       <r>     3.9428     0.2351   222.0059 </r>
       <r>     3.9961     4.0680   222.2228 </r>
       <r>     4.0495    27.9532   223.7131 </r>
       <r>     4.1028    66.2295   227.2441 </r>
       <r>     4.1561    45.9647   229.6948 </r>
       <r>     4.2094     5.6417   229.9956 </r>
       <r>     4.2627     1.6209   230.0820 </r>
       <r>     4.3160    26.2043   231.4791 </r>
       <r>     4.3693    78.1215   235.6442 </r>
       <r>     4.4227    82.0492   240.0186 </r>
       <r>     4.4760    34.8941   241.8790 </r>
       <r>     4.5293    15.1483   242.6867 </r>
       <r>     4.5826    40.4235   244.8419 </r>
       <r>     4.6359    20.2283   245.9203 </r>
       <r>     4.6892     1.4800   245.9992 </r>
       <r>     4.7426     0.0329   246.0010 </r>
       <r>     4.7959     2.0550   246.1106 </r>
       <r>     4.8492    29.2462   247.6698 </r>
       <r>     4.9025    60.8473   250.9139 </r>
       <r>     4.9558    19.4753   251.9523 </r>
       <r>     5.0091     0.8900   251.9997 </r>
       <r>     5.0624     0.0052   252.0000 </r>
       <r>     5.1158     0.0000   252.0000 </r>
       <r>     5.1691     0.0000   252.0000 </r>
       <r>     5.2224     0.0130   252.0007 </r>
       <r>     5.2757     1.3964   252.0751 </r>
       <r>     5.3290    19.6311   253.1218 </r>
       <r>     5.3823    40.4996   255.2810 </r>
       <r>     5.4357    12.8938   255.9685 </r>
       <r>     5.4890     0.5879   255.9998 </r>
       <r>     5.5423     0.0034   256.0000 </r>
       <r>     5.5956     0.0000   256.0000 </r>
       <r>     5.6489     0.0000   256.0000 </r>
       <r>     5.7022     0.0000   256.0000 </r>
       <r>     5.7555     0.0000   256.0000 </r>
       <r>     5.8089     0.0000   256.0000 </r>
       <r>     5.8622     0.0000   256.0000 </r>
       <r>     5.9155     0.0000   256.0000 </r>
       <r>     5.9688     0.0000   256.0000 </r>
       <r>     6.0221     0.0000   256.0000 </r>
       <r>     6.0754     0.0000   256.0000 </r>
       <r>     6.1288     0.0000   256.0000 </r>
       <r>     6.1821     0.0000   256.0000 </r>
       <r>     6.2354     0.0000   256.0000 </r>
       <r>     6.2887     0.0000   256.0000 </r>
       <r>     6.3420     0.0000   256.0000 </r>
       <r>     6.3953     0.0001   256.0000 </r>
       <r>     6.4486     0.0682   256.0036 </r>
       <r>     6.5020     4.6186   256.2499 </r>
       <r>     6.5553    41.4080   258.4576 </r>
       <r>     6.6086    55.0511   261.3926 </r>
       <r>     6.6619    11.0837   261.9836 </r>
       <r>     6.7152     0.3070   261.9999 </r>
       <r>     6.7685     0.0010   262.0000 </r>
       <r>     6.8219     0.0000   262.0000 </r>
       <r>     6.8752     0.0154   262.0008 </r>
       <r>     6.9285     1.8155   262.0976 </r>
       <r>     6.9818    27.6616   263.5724 </r>
       <r>     7.0351    61.2273   266.8368 </r>
       <r>     7.0884    20.8028   267.9459 </r>
       <r>     7.1417     1.1836   268.0090 </r>
       <r>     7.1951     4.9783   268.2744 </r>
       <r>     7.2484    19.6380   269.3214 </r>
       <r>     7.3017    11.7031   269.9454 </r>
       <r>     7.3550     1.0209   269.9998 </r>
       <r>     7.4083     1.1480   270.0610 </r>
       <r>     7.4616    22.1000   271.2393 </r>
       <r>     7.5150    61.6494   274.5261 </r>
       <r>     7.5683    34.3897   276.3596 </r>
       <r>     7.6216    52.0648   279.1355 </r>
       <r>     7.6749    47.2087   281.6524 </r>
       <r>     7.7282    16.8162   282.5490 </r>
       <r>     7.7815    80.7468   286.8540 </r>
       <r>     7.8348   107.9540   292.6097 </r>
       <r>     7.8882    25.1584   293.9510 </r>
       <r>     7.9415     2.3267   294.0750 </r>
       <r>     7.9948    34.4989   295.9144 </r>
       <r>     8.0481   125.7447   302.6185 </r>
       <r>     8.1014    84.9371   307.1469 </r>
       <r>     8.1547    15.2272   307.9588 </r>
       <r>     8.2081     1.5616   308.0420 </r>
       <r>     8.2614    18.4926   309.0280 </r>
       <r>     8.3147    60.7260   312.2656 </r>
       <r>     8.3680    30.3377   313.8831 </r>
       <r>     8.4213     4.5946   314.1280 </r>
       <r>     8.4746    44.9453   316.5243 </r>
       <r>     8.5279   132.9642   323.6134 </r>
       <r>     8.5813    73.5049   327.5323 </r>
       <r>     8.6346     8.5676   327.9891 </r>
       <r>     8.6879     0.2040   328.0000 </r>
       <r>     8.7412     0.0008   328.0000 </r>
       <r>     8.7945     0.0000   328.0000 </r>
       <r>     8.8478     0.0000   328.0000 </r>
       <r>     8.9012     0.0000   328.0000 </r>
       <r>     8.9545     0.0000   328.0000 </r>
       <r>     9.0078     0.0000   328.0000 </r>
       <r>     9.0611     0.0000   328.0000 </r>
       <r>     9.1144     0.0000   328.0000 </r>
       <r>     9.1677     0.0000   328.0000 </r>
       <r>     9.2210     0.0000   328.0000 </r>
       <r>     9.2744     0.0000   328.0000 </r>
      </set>
     </set>
    </array>
   </total>
  </dos>
 </calculation>
 <structure name="finalpos" >
  <crystal>
   <varray name="basis" >
    <v>      10.93252578       0.00000000       0.00000000 </v>
    <v>       0.00000000      10.93252578       0.00000000 </v>
    <v>       0.00000000       0.00000000      10.93252578 </v>
   </varray>
   <i name="volume">   1306.65679237 </i>
   <varray name="rec_basis" >
    <v>       0.09147017       0.00000000       0.00000000 </v>
    <v>       0.00000000       0.09147017       0.00000000 </v>
    <v>       0.00000000       0.00000000       0.09147017 </v>
   </varray>
  </crystal>
  <varray name="positions" >
   <v>       0.44024411       0.43750000       0.43750000 </v>
   <v>       0.93750000       0.43750000       0.43750000 </v>
   <v>       0.43750000       0.93750000       0.43750000 </v>
   <v>       0.93750000       0.93750000       0.43750000 </v>
   <v>       0.43750000       0.43750000       0.93750000 </v>
   <v>       0.93750000       0.43750000       0.93750000 </v>
   <v>       0.43750000       0.93750000       0.93750000 </v>
   <v>       0.93750000       0.93750000       0.93750000 </v>
   <v>       0.43750000       0.18750000       0.18750000 </v>
   <v>       0.93750000       0.18750000       0.18750000 </v>
   <v>       0.43750000       0.68750000       0.18750000 </v>
   <v>       0.93750000       0.68750000       0.18750000 </v>
   <v>       0.43750000       0.18750000       0.68750000 </v>
   <v>       0.93750000       0.18750000       0.68750000 </v>
   <v>       0.43750000       0.68750000       0.68750000 </v>
   <v>       0.93750000       0.68750000       0.68750000 </v>
   <v>       0.18750000       0.43750000       0.18750000 </v>
   <v>       0.68750000       0.43750000       0.18750000 </v>
   <v>       0.18750000       0.93750000       0.18750000 </v>
   <v>       0.68750000       0.93750000       0.18750000 </v>
   <v>       0.18750000       0.43750000       0.68750000 </v>
   <v>       0.68750000       0.43750000       0.68750000 </v>
   <v>       0.18750000       0.93750000       0.68750000 </v>
   <v>       0.68750000       0.93750000       0.68750000 </v>
   <v>       0.18750000       0.18750000       0.43750000 </v>
   <v>       0.68750000       0.18750000       0.43750000 </v>
   <v>       0.18750000       0.68750000       0.43750000 </v>
   <v>       0.68750000       0.68750000       0.43750000 </v>
   <v>       0.18750000       0.18750000       0.93750000 </v>
   <v>       0.68750000       0.18750000       0.93750000 </v>
   <v>       0.18750000       0.68750000       0.93750000 </v>
   <v>       0.68750000       0.68750000       0.93750000 </v>
   <v>       0.06250000       0.06250000       0.06250000 </v>
   <v>       0.56250000       0.06250000       0.06250000 </v>
   <v>       0.06250000       0.56250000       0.06250000 </v>
   <v>       0.56250000       0.56250000       0.06250000 </v>
   <v>       0.06250000       0.06250000       0.56250000 </v>
   <v>       0.56250000       0.06250000       0.56250000 </v>
   <v>       0.06250000       0.56250000       0.56250000 </v>
   <v>       0.56250000       0.56250000       0.56250000 </v>
   <v>       0.06250000       0.31250000       0.31250000 </v>
   <v>       0.56250000       0.31250000       0.31250000 </v>
   <v>       0.06250000       0.81250000       0.31250000 </v>
   <v>       0.56250000       0.81250000       0.31250000 </v>
   <v>       0.06250000       0.31250000       0.81250000 </v>
   <v>       0.56250000       0.31250000       0.81250000 </v>
   <v>       0.06250000       0.81250000       0.81250000 </v>
   <v>       0.56250000       0.81250000       0.81250000 </v>
   <v>       0.31250000       0.06524411       0.31250000 </v>
   <v>       0.81250000       0.06250000       0.31250000 </v>
   <v>       0.31250000       0.56250000       0.31250000 </v>
   <v>       0.81250000       0.56250000       0.31250000 </v>
   <v>       0.31250000       0.06250000       0.81250000 </v>
   <v>       0.81250000       0.06250000       0.81250000 </v>
   <v>       0.31250000       0.56250000       0.81250000 </v>
   <v>       0.81250000       0.56250000       0.81250000 </v>
   <v>       0.31250000       0.31250000       0.06250000 </v>
   <v>       0.81250000       0.31250000       0.06250000 </v>
   <v>       0.31250000       0.81250000       0.06250000 </v>
   <v>       0.81250000       0.81250000       0.06250000 </v>
   <v>       0.31250000       0.31250000       0.56250000 </v>
   <v>       0.81250000       0.31250000       0.56250000 </v>
   <v>       0.31250000       0.81250000       0.56250000 </v>
   <v>       0.81250000       0.81250000       0.56250000 </v>
  </varray>
 </structure>
</modeling>
