<?xml version="1.0" encoding="ISO-8859-1"?>
<modeling>
 <generator>
  <i name="program" type="string">vasp </i>
  <i name="version" type="string">5.4.1  </i>
  <i name="subversion" type="string">05Feb16 (build Mar 26 2016 11:58:25) complex                          parallel </i>
  <i name="platform" type="string">IFC91_ompi </i>
  <i name="date" type="string">2017 03 12 </i>
  <i name="time" type="string">12:17:11 </i>
 </generator>
 <incar>
  <i type="string" name="PREC">accurate</i>
  <i type="int" name="IALGO">    38</i>
  <i type="logical" name="ADDGRID"> T  </i>
  <i type="int" name="NELMIN">     5</i>
  <i type="int" name="IBRION">    -1</i>
  <i name="EDIFF">      0.00000001</i>
  <i name="ENCUT">    300.00000000</i>
  <i type="logical" name="LREAL"> F  </i>
  <i type="int" name="ISMEAR">     0</i>
  <i name="SIGMA">      0.05000000</i>
  <i type="logical" name="LWAVE"> F  </i>
  <i type="logical" name="LCHARG"> F  </i>
  <v type="int" name="KPOINT_BSE">    -1     0     0     0</v>
 </incar>
 <kpoints>
  <generation param="Monkhorst-Pack">
   <v type="int" name="divisions">       2        2        2 </v>
   <v name="usershift">      0.00000000       0.00000000       0.00000000 </v>
   <v name="genvec1">      0.50000000       0.00000000       0.00000000 </v>
   <v name="genvec2">      0.00000000       0.50000000       0.00000000 </v>
   <v name="genvec3">      0.00000000       0.00000000       0.50000000 </v>
   <v name="shift">      0.50000000       0.50000000       0.50000000 </v>
  </generation>
  <varray name="kpointlist" >
   <v>       0.25000000       0.25000000       0.25000000 </v>
   <v>      -0.25000000       0.25000000       0.25000000 </v>
   <v>       0.25000000      -0.25000000       0.25000000 </v>
   <v>      -0.25000000      -0.25000000       0.25000000 </v>
  </varray>
  <varray name="weights" >
   <v>       0.25000000 </v>
   <v>       0.25000000 </v>
   <v>       0.25000000 </v>
   <v>       0.25000000 </v>
  </varray>
 </kpoints>
 <parameters>
  <separator name="general" >
   <i type="string" name="SYSTEM">unknown system</i>
   <i type="logical" name="LCOMPAT"> F  </i>
  </separator>
  <separator name="electronic" >
   <i type="string" name="PREC">accura</i>
   <i name="ENMAX">    300.00000000</i>
   <i name="ENAUG">    322.06900000</i>
   <i name="EDIFF">      0.00000001</i>
   <i type="int" name="IALGO">    38</i>
   <i type="int" name="IWAVPR">    10</i>
   <i type="int" name="NBANDS">   164</i>
   <i name="NELECT">    256.00000000</i>
   <i type="int" name="TURBO">     0</i>
   <i type="int" name="IRESTART">     0</i>
   <i type="int" name="NREBOOT">     0</i>
   <i type="int" name="NMIN">     0</i>
   <i name="EREF">      0.00000000</i>
   <separator name="electronic smearing" >
    <i type="int" name="ISMEAR">     0</i>
    <i name="SIGMA">      0.05000000</i>
    <i name="KSPACING">      0.50000000</i>
    <i type="logical" name="KGAMMA"> T  </i>
   </separator>
   <separator name="electronic projectors" >
    <i type="logical" name="LREAL"> F  </i>
    <v name="ROPT">      0.00000000</v>
    <i type="int" name="LMAXPAW">  -100</i>
    <i type="int" name="LMAXMIX">     2</i>
    <i type="logical" name="NLSPLINE"> F  </i>
   </separator>
   <separator name="electronic startup" >
    <i type="int" name="ISTART">     0</i>
    <i type="int" name="ICHARG">     2</i>
    <i type="int" name="INIWAV">     1</i>
   </separator>
   <separator name="electronic spin" >
    <i type="int" name="ISPIN">     1</i>
    <i type="logical" name="LNONCOLLINEAR"> F  </i>
    <v name="MAGMOM">      1.00000000      1.00000000      1.00000000      1.00000000      1.00000000      1.00000000      1.00000000      1.00000000      1.00000000      1.00000000      1.00000000      1.00000000      1.00000000      1.00000000      1.00000000      1.00000000      1.00000000      1.00000000      1.00000000      1.00000000
      1.00000000      1.00000000      1.00000000      1.00000000      1.00000000      1.00000000      1.00000000      1.00000000      1.00000000      1.00000000      1.00000000      1.00000000      1.00000000      1.00000000      1.00000000      1.00000000      1.00000000      1.00000000      1.00000000      1.00000000
      1.00000000      1.00000000      1.00000000      1.00000000      1.00000000      1.00000000      1.00000000      1.00000000      1.00000000      1.00000000      1.00000000      1.00000000      1.00000000      1.00000000      1.00000000      1.00000000      1.00000000      1.00000000      1.00000000      1.00000000
      1.00000000      1.00000000      1.00000000      1.00000000</v>
    <i name="NUPDOWN">     -1.00000000</i>
    <i type="logical" name="LSORBIT"> F  </i>
    <v name="SAXIS">      0.00000000      0.00000000      1.00000000</v>
    <i type="logical" name="LSPIRAL"> F  </i>
    <v name="QSPIRAL">      0.00000000      0.00000000      0.00000000</v>
    <i type="logical" name="LZEROZ"> F  </i>
   </separator>
   <separator name="electronic exchange-correlation" >
    <i type="logical" name="LASPH"> F  </i>
    <i type="logical" name="LMETAGGA"> F  </i>
   </separator>
   <separator name="electronic convergence" >
    <i type="int" name="NELM">    60</i>
    <i type="int" name="NELMDL">    -5</i>
    <i type="int" name="NELMIN">     5</i>
    <i name="ENINI">    300.00000000</i>
    <separator name="electronic convergence detail" >
     <i type="logical" name="LDIAG"> T  </i>
     <i type="logical" name="LSUBROT"> F  </i>
     <i name="WEIMIN">      0.00000000</i>
     <i name="EBREAK">      0.00000000</i>
     <i name="DEPER">      0.30000000</i>
     <i type="int" name="NRMM">     4</i>
     <i name="TIME">      0.40000000</i>
    </separator>
   </separator>
   <separator name="electronic mixer" >
    <i name="AMIX">      0.40000000</i>
    <i name="BMIX">      1.00000000</i>
    <i name="AMIN">      0.10000000</i>
    <i name="AMIX_MAG">      1.60000000</i>
    <i name="BMIX_MAG">      1.00000000</i>
    <separator name="electronic mixer details" >
     <i type="int" name="IMIX">     4</i>
     <i type="logical" name="MIXFIRST"> F  </i>
     <i type="int" name="MAXMIX">   -45</i>
     <i name="WC">    100.00000000</i>
     <i type="int" name="INIMIX">     1</i>
     <i type="int" name="MIXPRE">     1</i>
     <i type="int" name="MREMOVE">     5</i>
    </separator>
   </separator>
   <separator name="electronic dipolcorrection" >
    <i type="logical" name="LDIPOL"> F  </i>
    <i type="logical" name="LMONO"> F  </i>
    <i type="int" name="IDIPOL">     0</i>
    <i name="EPSILON">      1.00000000</i>
    <v name="DIPOL">   -100.00000000   -100.00000000   -100.00000000</v>
    <i name="EFIELD">      0.00000000</i>
   </separator>
  </separator>
  <separator name="grids" >
   <i type="int" name="NGX">    64</i>
   <i type="int" name="NGY">    64</i>
   <i type="int" name="NGZ">    64</i>
   <i type="int" name="NGXF">   128</i>
   <i type="int" name="NGYF">   128</i>
   <i type="int" name="NGZF">   128</i>
   <i type="logical" name="ADDGRID"> T  </i>
  </separator>
  <separator name="ionic" >
   <i type="int" name="NSW">     0</i>
   <i type="int" name="IBRION">    -1</i>
   <i type="int" name="ISIF">     2</i>
   <i name="PSTRESS">      0.00000000</i>
   <i name="EDIFFG">      0.00000010</i>
   <i type="int" name="NFREE">     0</i>
   <i name="POTIM">      0.50000000</i>
   <i name="SMASS">     -3.00000000</i>
   <i name="SCALEE">      1.00000000</i>
  </separator>
  <separator name="ionic md" >
   <i name="TEBEG">      0.00010000</i>
   <i name="TEEND">      0.00010000</i>
   <i type="int" name="NBLOCK">     1</i>
   <i type="int" name="KBLOCK">     1</i>
   <i type="int" name="NPACO">   256</i>
   <i name="APACO">     16.00000000</i>
  </separator>
  <separator name="symmetry" >
   <i type="int" name="ISYM">     2</i>
   <i name="SYMPREC">      0.00001000</i>
  </separator>
  <separator name="dos" >
   <i type="logical" name="LORBIT"> F  </i>
   <v name="RWIGS">     -1.00000000</v>
   <i type="int" name="NEDOS">   301</i>
   <i name="EMIN">     10.00000000</i>
   <i name="EMAX">    -10.00000000</i>
   <i name="EFERMI">      0.00000000</i>
  </separator>
  <separator name="writing" >
   <i type="int" name="NWRITE">     2</i>
   <i type="logical" name="LWAVE"> F  </i>
   <i type="logical" name="LCHARG"> F  </i>
   <i type="logical" name="LPARD"> F  </i>
   <i type="logical" name="LVTOT"> F  </i>
   <i type="logical" name="LVHAR"> F  </i>
   <i type="logical" name="LELF"> F  </i>
   <i type="logical" name="LOPTICS"> F  </i>
   <v name="STM">      0.00000000      0.00000000      0.00000000      0.00000000      0.00000000      0.00000000      0.00000000</v>
  </separator>
  <separator name="performance" >
   <i type="int" name="NPAR">     4</i>
   <i type="int" name="NSIM">     4</i>
   <i type="int" name="NBLK">    -1</i>
   <i type="logical" name="LPLANE"> T  </i>
   <i type="logical" name="LSCALAPACK"> T  </i>
   <i type="logical" name="LSCAAWARE"> F  </i>
   <i type="logical" name="LSCALU"> F  </i>
   <i type="logical" name="LASYNC"> F  </i>
   <i type="logical" name="LORBITALREAL"> F  </i>
  </separator>
  <separator name="miscellaneous" >
   <i type="int" name="IDIOT">     3</i>
   <i type="logical" name="LMUSIC"> F  </i>
   <v name="POMASS">     28.08500000</v>
   <v name="DARWINR">      0.00000000</v>
   <v name="DARWINV">      1.00000000</v>
   <i type="logical" name="LCORR"> T  </i>
  </separator>
  <i type="logical" name="GGA_COMPAT"> T  </i>
  <i type="logical" name="LBERRY"> F  </i>
  <i type="int" name="ICORELEVEL">     0</i>
  <i type="logical" name="LDAU"> F  </i>
  <i type="int" name="I_CONSTRAINED_M">     0</i>
  <separator name="electronic exchange-correlation" >
   <i type="string" name="GGA">--</i>
   <i type="int" name="VOSKOWN">     0</i>
   <i type="logical" name="LHFCALC"> F  </i>
   <i type="string" name="PRECFOCK"></i>
   <i type="logical" name="LSYMGRAD"> F  </i>
   <i type="logical" name="LHFONE"> F  </i>
   <i type="logical" name="LRHFCALC"> F  </i>
   <i type="logical" name="LTHOMAS"> F  </i>
   <i type="logical" name="LMODELHF"> F  </i>
   <i name="ENCUT4O">     -1.00000000</i>
   <i type="int" name="EXXOEP">     0</i>
   <i type="int" name="FOURORBIT">     0</i>
   <i name="AEXX">      0.00000000</i>
   <i name="HFALPHA">      0.00000000</i>
   <i name="MCALPHA">      0.00000000</i>
   <i name="ALDAX">      1.00000000</i>
   <i name="AGGAX">      1.00000000</i>
   <i name="ALDAC">      1.00000000</i>
   <i name="AGGAC">      1.00000000</i>
   <i type="int" name="NKREDX">     1</i>
   <i type="int" name="NKREDY">     1</i>
   <i type="int" name="NKREDZ">     1</i>
   <i type="logical" name="SHIFTRED"> F  </i>
   <i type="logical" name="ODDONLY"> F  </i>
   <i type="logical" name="EVENONLY"> F  </i>
   <i type="int" name="LMAXFOCK">     0</i>
   <i type="int" name="NMAXFOCKAE">     0</i>
   <i type="logical" name="LFOCKAEDFT"> F  </i>
   <i name="HFSCREEN">      0.00000000</i>
   <i name="HFSCREENC">      0.00000000</i>
   <i type="int" name="NBANDSGWLOW">     0</i>
  </separator>
  <separator name="vdW DFT" >
   <i type="logical" name="LUSE_VDW"> F  </i>
   <i name="Zab_VDW">     -0.84910000</i>
   <i name="PARAM1">      0.12340000</i>
   <i name="PARAM2">      1.00000000</i>
   <i name="PARAM3">      0.00000000</i>
  </separator>
  <separator name="model GW" >
   <i type="int" name="MODEL_GW">     0</i>
   <i name="MODEL_EPS0">     12.24990743</i>
   <i name="MODEL_ALPHA">      1.00000000</i>
  </separator>
  <separator name="linear response parameters" >
   <i type="logical" name="LEPSILON"> F  </i>
   <i type="logical" name="LRPA"> F  </i>
   <i type="logical" name="LNABLA"> F  </i>
   <i type="logical" name="LVEL"> F  </i>
   <i type="int" name="KINTER">     0</i>
   <i name="CSHIFT">      0.10000000</i>
   <i name="OMEGAMAX">     -1.00000000</i>
   <i name="DEG_THRESHOLD">      0.00200000</i>
  </separator>
  <separator name="orbital magnetization" >
   <i type="logical" name="NUCIND"> F  </i>
   <v name="MAGPOS">      0.00000000      0.00000000      0.00000000</v>
   <i type="logical" name="LNICSALL"> T  </i>
   <i type="logical" name="ORBITALMAG"> F  </i>
   <i type="logical" name="LMAGBLOCH"> F  </i>
   <i type="logical" name="LCHIMAG"> F  </i>
   <i type="logical" name="LGAUGE"> T  </i>
   <i type="int" name="MAGATOM">     0</i>
   <v name="MAGDIPOL">      0.00000000      0.00000000      0.00000000</v>
   <v name="AVECCONST">      0.00000000      0.00000000      0.00000000</v>
  </separator>
  <separator name="response functions" >
   <i type="logical" name="LADDER"> F  </i>
   <i type="logical" name="LFXC"> F  </i>
   <i type="logical" name="LHARTREE"> T  </i>
   <i type="int" name="IBSE">     0</i>
   <v type="int" name="KPOINT">    -1     0     0     0</v>
   <i type="logical" name="LTCTE"> F  </i>
   <i type="logical" name="LTETE"> F  </i>
   <i type="logical" name="LTRIPLET"> F  </i>
   <i type="logical" name="LFXCEPS"> F  </i>
   <i type="logical" name="LFXHEG"> F  </i>
   <i type="int" name="NATURALO">     0</i>
   <i type="logical" name="L2ORDER"> F  </i>
   <i type="logical" name="LUSEW"> F  </i>
   <i name="ENCUTGW">     -2.00000000</i>
   <i name="ENCUTGWSOFT">     -2.00000000</i>
   <i name="ENCUTLF">     -1.00000000</i>
   <i type="int" name="LMAXMP2">    -1</i>
   <i name="SCISSOR">      0.00000000</i>
   <i type="int" name="NOMEGA">     0</i>
   <i type="int" name="NOMEGAR">     0</i>
   <i type="int" name="NBANDSGW">    -1</i>
   <i type="int" name="NBANDSO">    -1</i>
   <i type="int" name="NBANDSV">    -1</i>
   <i type="int" name="NELM">     1</i>
   <i type="int" name="NELMHF">     1</i>
   <i type="int" name="DIM">     3</i>
   <i type="int" name="ANTIRES">     0</i>
   <i name="OMEGAMAX">    -30.00000000</i>
   <i name="OMEGAMIN">    -30.00000000</i>
   <i name="OMEGATL">   -200.00000000</i>
   <i type="int" name="OMEGAGRID">     0</i>
   <i name="CSHIFT">     -0.10000000</i>
   <i type="logical" name="SELFENERGY"> F  </i>
   <i type="logical" name="LSPECTRAL"> F  </i>
   <i type="logical" name="LSPECTRALGW"> F  </i>
   <i type="logical" name="LSINGLES"> F  </i>
   <i type="logical" name="LFERMIGW"> F  </i>
   <i type="logical" name="ODDONLYGW"> F  </i>
   <i type="logical" name="EVENONLYGW"> F  </i>
   <i type="int" name="NKREDLFX">     1</i>
   <i type="int" name="NKREDLFY">     1</i>
   <i type="int" name="NKREDLFZ">     1</i>
   <i type="int" name="MAXMEM">  1800</i>
   <i type="int" name="TELESCOPE">     0</i>
   <i type="int" name="TAUPAR">     1</i>
   <i type="int" name="OMEGAPAR">    -1</i>
   <i name="LAMBDA">      1.00000000</i>
  </separator>
  <separator name="External order field" >
   <i name="OFIELD_KAPPA">      0.00000000</i>
   <v name="OFIELD_K">      0.00000000      0.00000000      0.00000000</v>
   <i name="OFIELD_Q6_NEAR">      0.00000000</i>
   <i name="OFIELD_Q6_FAR">      0.00000000</i>
   <i name="OFIELD_A">      0.00000000</i>
  </separator>
 </parameters>
 <atominfo>
  <atoms>      64 </atoms>
  <types>       1 </types>
  <array name="atoms" >
   <dimension dim="1">ion</dimension>
   <field type="string">element</field>
   <field type="int">atomtype</field>
   <set>
    <rc><c>Si</c><c>   1</c></rc>
    <rc><c>Si</c><c>   1</c></rc>
    <rc><c>Si</c><c>   1</c></rc>
    <rc><c>Si</c><c>   1</c></rc>
    <rc><c>Si</c><c>   1</c></rc>
    <rc><c>Si</c><c>   1</c></rc>
    <rc><c>Si</c><c>   1</c></rc>
    <rc><c>Si</c><c>   1</c></rc>
    <rc><c>Si</c><c>   1</c></rc>
    <rc><c>Si</c><c>   1</c></rc>
    <rc><c>Si</c><c>   1</c></rc>
    <rc><c>Si</c><c>   1</c></rc>
    <rc><c>Si</c><c>   1</c></rc>
    <rc><c>Si</c><c>   1</c></rc>
    <rc><c>Si</c><c>   1</c></rc>
    <rc><c>Si</c><c>   1</c></rc>
    <rc><c>Si</c><c>   1</c></rc>
    <rc><c>Si</c><c>   1</c></rc>
    <rc><c>Si</c><c>   1</c></rc>
    <rc><c>Si</c><c>   1</c></rc>
    <rc><c>Si</c><c>   1</c></rc>
    <rc><c>Si</c><c>   1</c></rc>
    <rc><c>Si</c><c>   1</c></rc>
    <rc><c>Si</c><c>   1</c></rc>
    <rc><c>Si</c><c>   1</c></rc>
    <rc><c>Si</c><c>   1</c></rc>
    <rc><c>Si</c><c>   1</c></rc>
    <rc><c>Si</c><c>   1</c></rc>
    <rc><c>Si</c><c>   1</c></rc>
    <rc><c>Si</c><c>   1</c></rc>
    <rc><c>Si</c><c>   1</c></rc>
    <rc><c>Si</c><c>   1</c></rc>
    <rc><c>Si</c><c>   1</c></rc>
    <rc><c>Si</c><c>   1</c></rc>
    <rc><c>Si</c><c>   1</c></rc>
    <rc><c>Si</c><c>   1</c></rc>
    <rc><c>Si</c><c>   1</c></rc>
    <rc><c>Si</c><c>   1</c></rc>
    <rc><c>Si</c><c>   1</c></rc>
    <rc><c>Si</c><c>   1</c></rc>
    <rc><c>Si</c><c>   1</c></rc>
    <rc><c>Si</c><c>   1</c></rc>
    <rc><c>Si</c><c>   1</c></rc>
    <rc><c>Si</c><c>   1</c></rc>
    <rc><c>Si</c><c>   1</c></rc>
    <rc><c>Si</c><c>   1</c></rc>
    <rc><c>Si</c><c>   1</c></rc>
    <rc><c>Si</c><c>   1</c></rc>
    <rc><c>Si</c><c>   1</c></rc>
    <rc><c>Si</c><c>   1</c></rc>
    <rc><c>Si</c><c>   1</c></rc>
    <rc><c>Si</c><c>   1</c></rc>
    <rc><c>Si</c><c>   1</c></rc>
    <rc><c>Si</c><c>   1</c></rc>
    <rc><c>Si</c><c>   1</c></rc>
    <rc><c>Si</c><c>   1</c></rc>
    <rc><c>Si</c><c>   1</c></rc>
    <rc><c>Si</c><c>   1</c></rc>
    <rc><c>Si</c><c>   1</c></rc>
    <rc><c>Si</c><c>   1</c></rc>
    <rc><c>Si</c><c>   1</c></rc>
    <rc><c>Si</c><c>   1</c></rc>
    <rc><c>Si</c><c>   1</c></rc>
    <rc><c>Si</c><c>   1</c></rc>
   </set>
  </array>
  <array name="atomtypes" >
   <dimension dim="1">type</dimension>
   <field type="int">atomspertype</field>
   <field type="string">element</field>
   <field>mass</field>
   <field>valence</field>
   <field type="string">pseudopotential</field>
   <set>
    <rc><c>  64</c><c>Si</c><c>     28.08500000</c><c>      4.00000000</c><c>  PAW_PBE Si 05Jan2001                  </c></rc>
   </set>
  </array>
 </atominfo>
 <structure name="initialpos" >
  <crystal>
   <varray name="basis" >
    <v>      10.93252578       0.00000000       0.00000000 </v>
    <v>       0.00000000      10.93252578       0.00000000 </v>
    <v>       0.00000000       0.00000000      10.93252578 </v>
   </varray>
   <i name="volume">   1306.65679237 </i>
   <varray name="rec_basis" >
    <v>       0.09147017       0.00000000       0.00000000 </v>
    <v>       0.00000000       0.09147017       0.00000000 </v>
    <v>       0.00000000       0.00000000       0.09147017 </v>
   </varray>
  </crystal>
  <varray name="positions" >
   <v>       0.44024411       0.43750000       0.43750000 </v>
   <v>       0.93750000       0.43750000       0.43750000 </v>
   <v>       0.43750000       0.93750000       0.43750000 </v>
   <v>       0.93750000       0.93750000       0.43750000 </v>
   <v>       0.43750000       0.43750000       0.93750000 </v>
   <v>       0.93750000       0.43750000       0.93750000 </v>
   <v>       0.43750000       0.93750000       0.93750000 </v>
   <v>       0.93750000       0.93750000       0.93750000 </v>
   <v>       0.43750000       0.18750000       0.18750000 </v>
   <v>       0.93750000       0.18750000       0.18750000 </v>
   <v>       0.43750000       0.68750000       0.18750000 </v>
   <v>       0.93750000       0.68750000       0.18750000 </v>
   <v>       0.43750000       0.18750000       0.68750000 </v>
   <v>       0.93750000       0.18750000       0.68750000 </v>
   <v>       0.43750000       0.68750000       0.68750000 </v>
   <v>       0.93750000       0.68750000       0.68750000 </v>
   <v>       0.18750000       0.43750000       0.18750000 </v>
   <v>       0.68750000       0.43750000       0.18750000 </v>
   <v>       0.18750000       0.93750000       0.18750000 </v>
   <v>       0.68750000       0.93750000       0.18750000 </v>
   <v>       0.18750000       0.43750000       0.68750000 </v>
   <v>       0.68750000       0.43750000       0.68750000 </v>
   <v>       0.18750000       0.93750000       0.68750000 </v>
   <v>       0.68750000       0.93750000       0.68750000 </v>
   <v>       0.18750000       0.18750000       0.43750000 </v>
   <v>       0.68750000       0.18750000       0.43750000 </v>
   <v>       0.18750000       0.68750000       0.43750000 </v>
   <v>       0.68750000       0.68750000       0.43750000 </v>
   <v>       0.18750000       0.18750000       0.93750000 </v>
   <v>       0.68750000       0.18750000       0.93750000 </v>
   <v>       0.18750000       0.68750000       0.93750000 </v>
   <v>       0.68750000       0.68750000       0.93750000 </v>
   <v>       0.06250000       0.06250000       0.06250000 </v>
   <v>       0.56250000       0.06250000       0.06250000 </v>
   <v>       0.06250000       0.56250000       0.06250000 </v>
   <v>       0.56524411       0.56250000       0.06250000 </v>
   <v>       0.06250000       0.06250000       0.56250000 </v>
   <v>       0.56250000       0.06250000       0.56250000 </v>
   <v>       0.06250000       0.56250000       0.56250000 </v>
   <v>       0.56250000       0.56250000       0.56250000 </v>
   <v>       0.06250000       0.31250000       0.31250000 </v>
   <v>       0.56250000       0.31250000       0.31250000 </v>
   <v>       0.06250000       0.81250000       0.31250000 </v>
   <v>       0.56250000       0.81250000       0.31250000 </v>
   <v>       0.06250000       0.31250000       0.81250000 </v>
   <v>       0.56250000       0.31250000       0.81250000 </v>
   <v>       0.06250000       0.81250000       0.81250000 </v>
   <v>       0.56250000       0.81250000       0.81250000 </v>
   <v>       0.31250000       0.06250000       0.31250000 </v>
   <v>       0.81250000       0.06250000       0.31250000 </v>
   <v>       0.31250000       0.56250000       0.31250000 </v>
   <v>       0.81250000       0.56250000       0.31250000 </v>
   <v>       0.31250000       0.06250000       0.81250000 </v>
   <v>       0.81250000       0.06250000       0.81250000 </v>
   <v>       0.31250000       0.56250000       0.81250000 </v>
   <v>       0.81250000       0.56250000       0.81250000 </v>
   <v>       0.31250000       0.31250000       0.06250000 </v>
   <v>       0.81250000       0.31250000       0.06250000 </v>
   <v>       0.31250000       0.81250000       0.06250000 </v>
   <v>       0.81250000       0.81250000       0.06250000 </v>
   <v>       0.31250000       0.31250000       0.56250000 </v>
   <v>       0.81250000       0.31250000       0.56250000 </v>
   <v>       0.31250000       0.81250000       0.56250000 </v>
   <v>       0.81250000       0.81250000       0.56250000 </v>
  </varray>
 </structure>
 <calculation>
  <scstep>
   <time name="dav">    4.50    4.51</time>
   <time name="total">    4.71    4.71</time>
   <energy>
    <i name="alphaZ">    105.52440745 </i>
    <i name="ewald">  -7265.46992419 </i>
    <i name="hartreedc">   -361.71372251 </i>
    <i name="XCdc">   -597.75714196 </i>
    <i name="pawpsdc">   5639.92317535 </i>
    <i name="pawaedc">  -4513.95313856 </i>
    <i name="eentropy">     -0.00126462 </i>
    <i name="bandstr">    856.88512853 </i>
    <i name="atom">   6596.14994790 </i>
    <i name="e_fr_energy">    459.58746740 </i>
    <i name="e_wo_entrp">    459.58873202 </i>
    <i name="e_0_energy">    459.58809971 </i>
   </energy>
  </scstep>
  <scstep>
   <time name="dav">    5.17    5.18</time>
   <time name="total">    5.18    5.18</time>
   <energy>
    <i name="e_fr_energy">   -300.08092402 </i>
    <i name="e_wo_entrp">   -300.08092402 </i>
    <i name="e_0_energy">   -300.08092402 </i>
   </energy>
  </scstep>
  <scstep>
   <time name="dav">    5.21    5.22</time>
   <time name="total">    5.21    5.22</time>
   <energy>
    <i name="e_fr_energy">   -350.93694442 </i>
    <i name="e_wo_entrp">   -350.93694442 </i>
    <i name="e_0_energy">   -350.93694442 </i>
   </energy>
  </scstep>
  <scstep>
   <time name="dav">    5.21    5.22</time>
   <time name="total">    5.21    5.22</time>
   <energy>
    <i name="e_fr_energy">   -352.27009903 </i>
    <i name="e_wo_entrp">   -352.27009903 </i>
    <i name="e_0_energy">   -352.27009903 </i>
   </energy>
  </scstep>
  <scstep>
   <time name="dav">    5.18    5.18</time>
   <time name="total">    5.43    5.44</time>
   <energy>
    <i name="e_fr_energy">   -352.31303274 </i>
    <i name="e_wo_entrp">   -352.31303274 </i>
    <i name="e_0_energy">   -352.31303274 </i>
   </energy>
  </scstep>
  <scstep>
   <time name="dav">    5.03    5.04</time>
   <time name="total">    5.47    5.48</time>
   <energy>
    <i name="e_fr_energy">   -348.58456329 </i>
    <i name="e_wo_entrp">   -348.58456329 </i>
    <i name="e_0_energy">   -348.58456329 </i>
   </energy>
  </scstep>
  <scstep>
   <time name="dav">    5.05    5.06</time>
   <time name="total">    5.50    5.52</time>
   <energy>
    <i name="e_fr_energy">   -346.87187132 </i>
    <i name="e_wo_entrp">   -346.87187132 </i>
    <i name="e_0_energy">   -346.87187132 </i>
   </energy>
  </scstep>
  <scstep>
   <time name="dav">    5.09    5.09</time>
   <time name="total">    5.53    5.54</time>
   <energy>
    <i name="e_fr_energy">   -346.89808307 </i>
    <i name="e_wo_entrp">   -346.89808307 </i>
    <i name="e_0_energy">   -346.89808307 </i>
   </energy>
  </scstep>
  <scstep>
   <time name="dav">    5.33    5.33</time>
   <time name="total">    5.77    5.78</time>
   <energy>
    <i name="e_fr_energy">   -346.90483401 </i>
    <i name="e_wo_entrp">   -346.90483401 </i>
    <i name="e_0_energy">   -346.90483401 </i>
   </energy>
  </scstep>
  <scstep>
   <time name="dav">    4.90    4.91</time>
   <time name="total">    5.34    5.39</time>
   <energy>
    <i name="e_fr_energy">   -346.90687736 </i>
    <i name="e_wo_entrp">   -346.90687736 </i>
    <i name="e_0_energy">   -346.90687736 </i>
   </energy>
  </scstep>
  <scstep>
   <time name="dav">    5.19    5.20</time>
   <time name="total">    5.63    5.64</time>
   <energy>
    <i name="e_fr_energy">   -346.90685422 </i>
    <i name="e_wo_entrp">   -346.90685422 </i>
    <i name="e_0_energy">   -346.90685422 </i>
   </energy>
  </scstep>
  <scstep>
   <time name="dav">    5.07    5.07</time>
   <time name="total">    5.52    5.53</time>
   <energy>
    <i name="e_fr_energy">   -346.90686875 </i>
    <i name="e_wo_entrp">   -346.90686875 </i>
    <i name="e_0_energy">   -346.90686875 </i>
   </energy>
  </scstep>
  <scstep>
   <time name="dav">    5.08    5.10</time>
   <time name="total">    5.52    5.60</time>
   <energy>
    <i name="e_fr_energy">   -346.90686945 </i>
    <i name="e_wo_entrp">   -346.90686945 </i>
    <i name="e_0_energy">   -346.90686945 </i>
   </energy>
  </scstep>
  <scstep>
   <time name="dav">    5.25    5.26</time>
   <time name="total">    5.69    5.71</time>
   <energy>
    <i name="e_fr_energy">   -346.90687004 </i>
    <i name="e_wo_entrp">   -346.90687004 </i>
    <i name="e_0_energy">   -346.90687004 </i>
   </energy>
  </scstep>
  <scstep>
   <time name="dav">    4.39    4.39</time>
   <time name="total">    4.82    4.84</time>
   <energy>
    <i name="e_fr_energy">   -346.90686981 </i>
    <i name="e_wo_entrp">   -346.90686981 </i>
    <i name="e_0_energy">   -346.90686981 </i>
   </energy>
  </scstep>
  <scstep>
   <time name="dav">    3.55    3.56</time>
   <time name="total">    3.99    4.02</time>
   <energy>
    <i name="e_fr_energy">   -346.90686988 </i>
    <i name="e_wo_entrp">   -346.90686988 </i>
    <i name="e_0_energy">   -346.90686988 </i>
   </energy>
  </scstep>
  <scstep>
   <time name="dav">    3.47    3.48</time>
   <time name="total">    3.91    3.92</time>
   <energy>
    <i name="e_fr_energy">   -346.90686987 </i>
    <i name="e_wo_entrp">   -346.90686987 </i>
    <i name="e_0_energy">   -346.90686987 </i>
   </energy>
  </scstep>
  <scstep>
   <time name="dav">    3.41    3.42</time>
   <time name="total">    3.85    3.88</time>
   <energy>
    <i name="e_fr_energy">   -346.90686988 </i>
    <i name="e_wo_entrp">   -346.90686988 </i>
    <i name="e_0_energy">   -346.90686988 </i>
   </energy>
  </scstep>
  <scstep>
   <time name="dav">    3.42    3.43</time>
   <time name="total">    3.61    3.63</time>
   <energy>
    <i name="alphaZ">    105.52440745 </i>
    <i name="ewald">  -7265.46992419 </i>
    <i name="hartreedc">   -485.14440063 </i>
    <i name="XCdc">   -577.61229086 </i>
    <i name="pawpsdc">  27883.43818428 </i>
    <i name="pawaedc"> -26764.15611308 </i>
    <i name="eentropy">      0.00000000 </i>
    <i name="bandstr">    160.36331924 </i>
    <i name="atom">   6596.14994790 </i>
    <i name="e_fr_energy">   -346.90686989 </i>
    <i name="e_wo_entrp">   -346.90686989 </i>
    <i name="e_0_energy">   -346.90686989 </i>
   </energy>
  </scstep>
  <structure>
   <crystal>
    <varray name="basis" >
     <v>      10.93252578       0.00000000       0.00000000 </v>
     <v>       0.00000000      10.93252578       0.00000000 </v>
     <v>       0.00000000       0.00000000      10.93252578 </v>
    </varray>
    <i name="volume">   1306.65679237 </i>
    <varray name="rec_basis" >
     <v>       0.09147017       0.00000000       0.00000000 </v>
     <v>       0.00000000       0.09147017       0.00000000 </v>
     <v>       0.00000000       0.00000000       0.09147017 </v>
    </varray>
   </crystal>
   <varray name="positions" >
    <v>       0.44024411       0.43750000       0.43750000 </v>
    <v>       0.93750000       0.43750000       0.43750000 </v>
    <v>       0.43750000       0.93750000       0.43750000 </v>
    <v>       0.93750000       0.93750000       0.43750000 </v>
    <v>       0.43750000       0.43750000       0.93750000 </v>
    <v>       0.93750000       0.43750000       0.93750000 </v>
    <v>       0.43750000       0.93750000       0.93750000 </v>
    <v>       0.93750000       0.93750000       0.93750000 </v>
    <v>       0.43750000       0.18750000       0.18750000 </v>
    <v>       0.93750000       0.18750000       0.18750000 </v>
    <v>       0.43750000       0.68750000       0.18750000 </v>
    <v>       0.93750000       0.68750000       0.18750000 </v>
    <v>       0.43750000       0.18750000       0.68750000 </v>
    <v>       0.93750000       0.18750000       0.68750000 </v>
    <v>       0.43750000       0.68750000       0.68750000 </v>
    <v>       0.93750000       0.68750000       0.68750000 </v>
    <v>       0.18750000       0.43750000       0.18750000 </v>
    <v>       0.68750000       0.43750000       0.18750000 </v>
    <v>       0.18750000       0.93750000       0.18750000 </v>
    <v>       0.68750000       0.93750000       0.18750000 </v>
    <v>       0.18750000       0.43750000       0.68750000 </v>
    <v>       0.68750000       0.43750000       0.68750000 </v>
    <v>       0.18750000       0.93750000       0.68750000 </v>
    <v>       0.68750000       0.93750000       0.68750000 </v>
    <v>       0.18750000       0.18750000       0.43750000 </v>
    <v>       0.68750000       0.18750000       0.43750000 </v>
    <v>       0.18750000       0.68750000       0.43750000 </v>
    <v>       0.68750000       0.68750000       0.43750000 </v>
    <v>       0.18750000       0.18750000       0.93750000 </v>
    <v>       0.68750000       0.18750000       0.93750000 </v>
    <v>       0.18750000       0.68750000       0.93750000 </v>
    <v>       0.68750000       0.68750000       0.93750000 </v>
    <v>       0.06250000       0.06250000       0.06250000 </v>
    <v>       0.56250000       0.06250000       0.06250000 </v>
    <v>       0.06250000       0.56250000       0.06250000 </v>
    <v>       0.56524411       0.56250000       0.06250000 </v>
    <v>       0.06250000       0.06250000       0.56250000 </v>
    <v>       0.56250000       0.06250000       0.56250000 </v>
    <v>       0.06250000       0.56250000       0.56250000 </v>
    <v>       0.56250000       0.56250000       0.56250000 </v>
    <v>       0.06250000       0.31250000       0.31250000 </v>
    <v>       0.56250000       0.31250000       0.31250000 </v>
    <v>       0.06250000       0.81250000       0.31250000 </v>
    <v>       0.56250000       0.81250000       0.31250000 </v>
    <v>       0.06250000       0.31250000       0.81250000 </v>
    <v>       0.56250000       0.31250000       0.81250000 </v>
    <v>       0.06250000       0.81250000       0.81250000 </v>
    <v>       0.56250000       0.81250000       0.81250000 </v>
    <v>       0.31250000       0.06250000       0.31250000 </v>
    <v>       0.81250000       0.06250000       0.31250000 </v>
    <v>       0.31250000       0.56250000       0.31250000 </v>
    <v>       0.81250000       0.56250000       0.31250000 </v>
    <v>       0.31250000       0.06250000       0.81250000 </v>
    <v>       0.81250000       0.06250000       0.81250000 </v>
    <v>       0.31250000       0.56250000       0.81250000 </v>
    <v>       0.81250000       0.56250000       0.81250000 </v>
    <v>       0.31250000       0.31250000       0.06250000 </v>
    <v>       0.81250000       0.31250000       0.06250000 </v>
    <v>       0.31250000       0.81250000       0.06250000 </v>
    <v>       0.81250000       0.81250000       0.06250000 </v>
    <v>       0.31250000       0.31250000       0.56250000 </v>
    <v>       0.81250000       0.31250000       0.56250000 </v>
    <v>       0.31250000       0.81250000       0.56250000 </v>
    <v>       0.81250000       0.81250000       0.56250000 </v>
   </varray>
  </structure>
  <varray name="forces" >
   <v>      -0.38861304       0.00129897       0.00090650 </v>
   <v>       0.00121171       0.00070651       0.00063856 </v>
   <v>       0.00745020       0.00067687       0.00067615 </v>
   <v>      -0.00070939       0.00074431       0.00074101 </v>
   <v>       0.09438525       0.06096503       0.06095850 </v>
   <v>      -0.00045213       0.00090298       0.00090573 </v>
   <v>      -0.01298083       0.00088867       0.00124490 </v>
   <v>       0.00124057       0.00063883       0.00070494 </v>
   <v>      -0.01432456       0.00187944       0.00152867 </v>
   <v>       0.00063807      -0.00041423      -0.00048270 </v>
   <v>       0.08029169      -0.05829825      -0.06362549 </v>
   <v>      -0.00027786      -0.00067003      -0.00113475 </v>
   <v>      -0.00663931      -0.00333944       0.00198780 </v>
   <v>      -0.00053567      -0.00097827      -0.00051230 </v>
   <v>      -0.01431589      -0.00401683      -0.00366016 </v>
   <v>       0.00063645      -0.00093051      -0.00086544 </v>
   <v>       0.00537161      -0.00358488       0.00647411 </v>
   <v>       0.10160539      -0.06885715       0.06039359 </v>
   <v>       0.00163372      -0.00083163      -0.00121187 </v>
   <v>      -0.00045371      -0.00115303       0.00305987 </v>
   <v>       0.00626794       0.00202330      -0.00496022 </v>
   <v>       0.00432690       0.00156023       0.00661274 </v>
   <v>       0.00048124      -0.00052413       0.00261659 </v>
   <v>       0.00723572      -0.00045549      -0.00115991 </v>
   <v>       0.00511416       0.00631724      -0.00342957 </v>
   <v>       0.01201806      -0.00501934      -0.00346686 </v>
   <v>       0.00626478      -0.00490376       0.00206705 </v>
   <v>       0.00432676       0.00690123       0.00184452 </v>
   <v>       0.00163475      -0.00125892      -0.00088525 </v>
   <v>      -0.00045502       0.00277193      -0.00144256 </v>
   <v>       0.00074219       0.00277217      -0.00067993 </v>
   <v>       0.09682103       0.06428172      -0.06587761 </v>
   <v>      -0.00071324       0.00075624       0.00075911 </v>
   <v>       0.00753398       0.00068465       0.00068545 </v>
   <v>       0.00116750       0.00065432       0.00060146 </v>
   <v>      -0.38857017       0.00115952       0.00090930 </v>
   <v>       0.00119355       0.00060124       0.00065626 </v>
   <v>      -0.01302801       0.00092518       0.00121328 </v>
   <v>      -0.00045304       0.00091075       0.00090808 </v>
   <v>       0.09712712       0.06610410       0.06611098 </v>
   <v>      -0.00030132      -0.00068402      -0.00113898 </v>
   <v>       0.08292894      -0.06333409      -0.06888013 </v>
   <v>       0.00061590      -0.00036573      -0.00041808 </v>
   <v>      -0.01424121       0.00174385       0.00145069 </v>
   <v>       0.00061791      -0.00089068      -0.00083454 </v>
   <v>      -0.01424974      -0.00387821      -0.00359070 </v>
   <v>      -0.00056116      -0.00098212      -0.00052842 </v>
   <v>      -0.00666812      -0.00345930       0.00208799 </v>
   <v>      -0.00041611      -0.00112078       0.00310679 </v>
   <v>       0.00168471      -0.00086832      -0.00113571 </v>
   <v>       0.09872075      -0.06365201       0.05542399 </v>
   <v>       0.00552553      -0.00367075       0.00659010 </v>
   <v>       0.00715064      -0.00044595      -0.00118744 </v>
   <v>       0.00048652      -0.00051661       0.00259276 </v>
   <v>       0.00421510       0.00142270       0.00645158 </v>
   <v>       0.00646222       0.00205774      -0.00505034 </v>
   <v>       0.00421482       0.00680725       0.00178253 </v>
   <v>       0.00646571      -0.00498567       0.00213362 </v>
   <v>       0.01177971      -0.00487039      -0.00333614 </v>
   <v>       0.00526520       0.00643388      -0.00351288 </v>
   <v>       0.09409371       0.05907815      -0.06073233 </v>
   <v>       0.00074301       0.00275049      -0.00067431 </v>
   <v>      -0.00041489       0.00275080      -0.00147542 </v>
   <v>       0.00168370      -0.00120977      -0.00093519 </v>
  </varray>
  <varray name="stress" >
   <v>      -0.01755186       0.00001996      -0.00005812 </v>
   <v>       0.00001996       0.02097853       0.00008780 </v>
   <v>      -0.00005809       0.00008779       0.02077669 </v>
  </varray>
  <energy>
   <i name="e_fr_energy">   -346.90686989 </i>
   <i name="e_wo_entrp">   -346.90686989 </i>
   <i name="e_0_energy">      0.00000000 </i>
  </energy>
  <time name="totalsc">  106.22  106.62</time>
  <eigenvalues>
   <array>
    <dimension dim="1">band</dimension>
    <dimension dim="2">kpoint</dimension>
    <dimension dim="3">spin</dimension>
    <field>eigene</field>
    <field>occ</field>
    <set>
     <set comment="spin 1">
      <set comment="kpoint 1">
       <r>   -5.9932    1.0000 </r>
       <r>   -5.4683    1.0000 </r>
       <r>   -5.4648    1.0000 </r>
       <r>   -5.4613    1.0000 </r>
       <r>   -4.9690    1.0000 </r>
       <r>   -4.9655    1.0000 </r>
       <r>   -4.9621    1.0000 </r>
       <r>   -4.5324    1.0000 </r>
       <r>   -4.4358    1.0000 </r>
       <r>   -4.4324    1.0000 </r>
       <r>   -4.4290    1.0000 </r>
       <r>   -4.0235    1.0000 </r>
       <r>   -4.0186    1.0000 </r>
       <r>   -4.0169    1.0000 </r>
       <r>   -4.0160    1.0000 </r>
       <r>   -4.0142    1.0000 </r>
       <r>   -4.0094    1.0000 </r>
       <r>   -3.8266    1.0000 </r>
       <r>   -3.8243    1.0000 </r>
       <r>   -3.8221    1.0000 </r>
       <r>   -3.3321    1.0000 </r>
       <r>   -3.3283    1.0000 </r>
       <r>   -3.3246    1.0000 </r>
       <r>   -2.9639    1.0000 </r>
       <r>   -2.9592    1.0000 </r>
       <r>   -2.9545    1.0000 </r>
       <r>   -2.7979    1.0000 </r>
       <r>   -2.7929    1.0000 </r>
       <r>   -2.7909    1.0000 </r>
       <r>   -2.7908    1.0000 </r>
       <r>   -2.7888    1.0000 </r>
       <r>   -2.7836    1.0000 </r>
       <r>   -1.2580    1.0000 </r>
       <r>   -1.2515    1.0000 </r>
       <r>   -1.2492    1.0000 </r>
       <r>   -1.2484    1.0000 </r>
       <r>   -1.2460    1.0000 </r>
       <r>   -1.2405    1.0000 </r>
       <r>   -1.1565    1.0000 </r>
       <r>   -1.1509    1.0000 </r>
       <r>   -1.1455    1.0000 </r>
       <r>   -1.0353    1.0000 </r>
       <r>   -1.0328    1.0000 </r>
       <r>   -1.0298    1.0000 </r>
       <r>   -0.9538    1.0000 </r>
       <r>   -0.9468    1.0000 </r>
       <r>   -0.9395    1.0000 </r>
       <r>   -0.2445    1.0000 </r>
       <r>   -0.1688    1.0000 </r>
       <r>   -0.1646    1.0000 </r>
       <r>   -0.1608    1.0000 </r>
       <r>   -0.1596    1.0000 </r>
       <r>   -0.1555    1.0000 </r>
       <r>   -0.1516    1.0000 </r>
       <r>    0.7075    1.0000 </r>
       <r>    0.7143    1.0000 </r>
       <r>    0.7210    1.0000 </r>
       <r>    1.0450    1.0000 </r>
       <r>    1.0471    1.0000 </r>
       <r>    1.0491    1.0000 </r>
       <r>    1.6526    1.0000 </r>
       <r>    1.6550    1.0000 </r>
       <r>    1.6561    1.0000 </r>
       <r>    1.6577    1.0000 </r>
       <r>    1.6588    1.0000 </r>
       <r>    1.6609    1.0000 </r>
       <r>    1.7140    1.0000 </r>
       <r>    1.7163    1.0000 </r>
       <r>    1.7185    1.0000 </r>
       <r>    2.2652    1.0000 </r>
       <r>    2.2678    1.0000 </r>
       <r>    2.2701    1.0000 </r>
       <r>    2.3653    1.0000 </r>
       <r>    2.3666    1.0000 </r>
       <r>    2.3703    1.0000 </r>
       <r>    2.3716    1.0000 </r>
       <r>    2.3744    1.0000 </r>
       <r>    2.3760    1.0000 </r>
       <r>    2.4222    1.0000 </r>
       <r>    2.4252    1.0000 </r>
       <r>    2.4284    1.0000 </r>
       <r>    2.7293    1.0000 </r>
       <r>    2.7321    1.0000 </r>
       <r>    2.7344    1.0000 </r>
       <r>    2.7355    1.0000 </r>
       <r>    2.7378    1.0000 </r>
       <r>    2.7405    1.0000 </r>
       <r>    2.9987    1.0000 </r>
       <r>    2.9992    1.0000 </r>
       <r>    2.9995    1.0000 </r>
       <r>    3.0118    1.0000 </r>
       <r>    3.0138    1.0000 </r>
       <r>    3.0152    1.0000 </r>
       <r>    3.3577    1.0000 </r>
       <r>    3.3622    1.0000 </r>
       <r>    3.3658    1.0000 </r>
       <r>    3.3818    1.0000 </r>
       <r>    3.3842    1.0000 </r>
       <r>    3.3874    1.0000 </r>
       <r>    3.4638    1.0000 </r>
       <r>    3.4666    1.0000 </r>
       <r>    3.4694    1.0000 </r>
       <r>    3.7349    1.0000 </r>
       <r>    3.7385    1.0000 </r>
       <r>    3.7409    1.0000 </r>
       <r>    3.7416    1.0000 </r>
       <r>    3.7437    1.0000 </r>
       <r>    3.7476    1.0000 </r>
       <r>    3.7775    1.0000 </r>
       <r>    3.7806    1.0000 </r>
       <r>    3.7841    1.0000 </r>
       <r>    4.0405    1.0000 </r>
       <r>    4.0976    1.0000 </r>
       <r>    4.0979    1.0000 </r>
       <r>    4.0984    1.0000 </r>
       <r>    4.3379    1.0000 </r>
       <r>    4.3410    1.0000 </r>
       <r>    4.3441    1.0000 </r>
       <r>    4.3999    1.0000 </r>
       <r>    4.4056    1.0000 </r>
       <r>    4.4122    1.0000 </r>
       <r>    4.5629    1.0000 </r>
       <r>    4.5630    1.0000 </r>
       <r>    4.8661    1.0000 </r>
       <r>    4.8700    1.0000 </r>
       <r>    4.8742    1.0000 </r>
       <r>    5.3497    1.0000 </r>
       <r>    5.3498    1.0000 </r>
       <r>    6.5629    0.0000 </r>
       <r>    6.5635    0.0000 </r>
       <r>    6.5638    0.0000 </r>
       <r>    6.9991    0.0000 </r>
       <r>    7.0045    0.0000 </r>
       <r>    7.0097    0.0000 </r>
       <r>    7.2337    0.0000 </r>
       <r>    7.4864    0.0000 </r>
       <r>    7.4909    0.0000 </r>
       <r>    7.4948    0.0000 </r>
       <r>    7.6165    0.0000 </r>
       <r>    7.6197    0.0000 </r>
       <r>    7.6225    0.0000 </r>
       <r>    7.7761    0.0000 </r>
       <r>    7.7798    0.0000 </r>
       <r>    7.7830    0.0000 </r>
       <r>    7.8011    0.0000 </r>
       <r>    7.8011    0.0000 </r>
       <r>    7.8019    0.0000 </r>
       <r>    8.0238    0.0000 </r>
       <r>    8.0256    0.0000 </r>
       <r>    8.0305    0.0000 </r>
       <r>    8.0307    0.0000 </r>
       <r>    8.0352    0.0000 </r>
       <r>    8.0370    0.0000 </r>
       <r>    8.0813    0.0000 </r>
       <r>    8.2921    0.0000 </r>
       <r>    8.2951    0.0000 </r>
       <r>    8.2980    0.0000 </r>
       <r>    8.4943    0.0000 </r>
       <r>    8.4988    0.0000 </r>
       <r>    8.5022    0.0000 </r>
       <r>    8.5065    0.0000 </r>
       <r>    8.5107    0.0000 </r>
       <r>    8.5194    0.0000 </r>
       <r>    8.5487    0.0000 </r>
      </set>
      <set comment="kpoint 2">
       <r>   -5.9932    1.0000 </r>
       <r>   -5.4683    1.0000 </r>
       <r>   -5.4648    1.0000 </r>
       <r>   -5.4613    1.0000 </r>
       <r>   -4.9689    1.0000 </r>
       <r>   -4.9656    1.0000 </r>
       <r>   -4.9621    1.0000 </r>
       <r>   -4.5321    1.0000 </r>
       <r>   -4.4359    1.0000 </r>
       <r>   -4.4325    1.0000 </r>
       <r>   -4.4291    1.0000 </r>
       <r>   -4.0245    1.0000 </r>
       <r>   -4.0195    1.0000 </r>
       <r>   -4.0172    1.0000 </r>
       <r>   -4.0156    1.0000 </r>
       <r>   -4.0134    1.0000 </r>
       <r>   -4.0085    1.0000 </r>
       <r>   -3.8244    1.0000 </r>
       <r>   -3.8243    1.0000 </r>
       <r>   -3.8243    1.0000 </r>
       <r>   -3.3320    1.0000 </r>
       <r>   -3.3284    1.0000 </r>
       <r>   -3.3246    1.0000 </r>
       <r>   -2.9594    1.0000 </r>
       <r>   -2.9592    1.0000 </r>
       <r>   -2.9589    1.0000 </r>
       <r>   -2.7987    1.0000 </r>
       <r>   -2.7936    1.0000 </r>
       <r>   -2.7920    1.0000 </r>
       <r>   -2.7897    1.0000 </r>
       <r>   -2.7881    1.0000 </r>
       <r>   -2.7830    1.0000 </r>
       <r>   -1.2569    1.0000 </r>
       <r>   -1.2522    1.0000 </r>
       <r>   -1.2506    1.0000 </r>
       <r>   -1.2469    1.0000 </r>
       <r>   -1.2456    1.0000 </r>
       <r>   -1.2413    1.0000 </r>
       <r>   -1.1515    1.0000 </r>
       <r>   -1.1510    1.0000 </r>
       <r>   -1.1508    1.0000 </r>
       <r>   -1.0329    1.0000 </r>
       <r>   -1.0327    1.0000 </r>
       <r>   -1.0322    1.0000 </r>
       <r>   -0.9538    1.0000 </r>
       <r>   -0.9468    1.0000 </r>
       <r>   -0.9395    1.0000 </r>
       <r>   -0.2446    1.0000 </r>
       <r>   -0.1664    1.0000 </r>
       <r>   -0.1643    1.0000 </r>
       <r>   -0.1625    1.0000 </r>
       <r>   -0.1577    1.0000 </r>
       <r>   -0.1557    1.0000 </r>
       <r>   -0.1539    1.0000 </r>
       <r>    0.7075    1.0000 </r>
       <r>    0.7143    1.0000 </r>
       <r>    0.7210    1.0000 </r>
       <r>    1.0450    1.0000 </r>
       <r>    1.0471    1.0000 </r>
       <r>    1.0491    1.0000 </r>
       <r>    1.6531    1.0000 </r>
       <r>    1.6549    1.0000 </r>
       <r>    1.6565    1.0000 </r>
       <r>    1.6576    1.0000 </r>
       <r>    1.6589    1.0000 </r>
       <r>    1.6606    1.0000 </r>
       <r>    1.7139    1.0000 </r>
       <r>    1.7159    1.0000 </r>
       <r>    1.7184    1.0000 </r>
       <r>    2.2662    1.0000 </r>
       <r>    2.2678    1.0000 </r>
       <r>    2.2692    1.0000 </r>
       <r>    2.3669    1.0000 </r>
       <r>    2.3678    1.0000 </r>
       <r>    2.3700    1.0000 </r>
       <r>    2.3717    1.0000 </r>
       <r>    2.3741    1.0000 </r>
       <r>    2.3747    1.0000 </r>
       <r>    2.4219    1.0000 </r>
       <r>    2.4248    1.0000 </r>
       <r>    2.4282    1.0000 </r>
       <r>    2.7292    1.0000 </r>
       <r>    2.7323    1.0000 </r>
       <r>    2.7348    1.0000 </r>
       <r>    2.7351    1.0000 </r>
       <r>    2.7376    1.0000 </r>
       <r>    2.7406    1.0000 </r>
       <r>    2.9973    1.0000 </r>
       <r>    2.9993    1.0000 </r>
       <r>    3.0008    1.0000 </r>
       <r>    3.0119    1.0000 </r>
       <r>    3.0136    1.0000 </r>
       <r>    3.0153    1.0000 </r>
       <r>    3.3577    1.0000 </r>
       <r>    3.3620    1.0000 </r>
       <r>    3.3658    1.0000 </r>
       <r>    3.3826    1.0000 </r>
       <r>    3.3842    1.0000 </r>
       <r>    3.3867    1.0000 </r>
       <r>    3.4639    1.0000 </r>
       <r>    3.4665    1.0000 </r>
       <r>    3.4696    1.0000 </r>
       <r>    3.7353    1.0000 </r>
       <r>    3.7385    1.0000 </r>
       <r>    3.7406    1.0000 </r>
       <r>    3.7420    1.0000 </r>
       <r>    3.7434    1.0000 </r>
       <r>    3.7473    1.0000 </r>
       <r>    3.7776    1.0000 </r>
       <r>    3.7805    1.0000 </r>
       <r>    3.7842    1.0000 </r>
       <r>    4.0405    1.0000 </r>
       <r>    4.0951    1.0000 </r>
       <r>    4.0984    1.0000 </r>
       <r>    4.1006    1.0000 </r>
       <r>    4.3380    1.0000 </r>
       <r>    4.3409    1.0000 </r>
       <r>    4.3441    1.0000 </r>
       <r>    4.3999    1.0000 </r>
       <r>    4.4056    1.0000 </r>
       <r>    4.4122    1.0000 </r>
       <r>    4.5629    1.0000 </r>
       <r>    4.5630    1.0000 </r>
       <r>    4.8661    1.0000 </r>
       <r>    4.8700    1.0000 </r>
       <r>    4.8742    1.0000 </r>
       <r>    5.3497    1.0000 </r>
       <r>    5.3498    1.0000 </r>
       <r>    6.5628    0.0000 </r>
       <r>    6.5635    0.0000 </r>
       <r>    6.5639    0.0000 </r>
       <r>    6.9991    0.0000 </r>
       <r>    7.0045    0.0000 </r>
       <r>    7.0097    0.0000 </r>
       <r>    7.2337    0.0000 </r>
       <r>    7.4864    0.0000 </r>
       <r>    7.4908    0.0000 </r>
       <r>    7.4948    0.0000 </r>
       <r>    7.6194    0.0000 </r>
       <r>    7.6195    0.0000 </r>
       <r>    7.6197    0.0000 </r>
       <r>    7.7762    0.0000 </r>
       <r>    7.7800    0.0000 </r>
       <r>    7.7832    0.0000 </r>
       <r>    7.7986    0.0000 </r>
       <r>    7.8011    0.0000 </r>
       <r>    7.8039    0.0000 </r>
       <r>    8.0244    0.0000 </r>
       <r>    8.0265    0.0000 </r>
       <r>    8.0292    0.0000 </r>
       <r>    8.0319    0.0000 </r>
       <r>    8.0343    0.0000 </r>
       <r>    8.0366    0.0000 </r>
       <r>    8.0816    0.0000 </r>
       <r>    8.2920    0.0000 </r>
       <r>    8.2950    0.0000 </r>
       <r>    8.2979    0.0000 </r>
       <r>    8.4944    0.0000 </r>
       <r>    8.4976    0.0000 </r>
       <r>    8.5027    0.0000 </r>
       <r>    8.5047    0.0000 </r>
       <r>    8.5087    0.0000 </r>
       <r>    8.5226    0.0000 </r>
       <r>    8.5391    0.0000 </r>
      </set>
      <set comment="kpoint 3">
       <r>   -5.9932    1.0000 </r>
       <r>   -5.4673    1.0000 </r>
       <r>   -5.4648    1.0000 </r>
       <r>   -5.4623    1.0000 </r>
       <r>   -4.9678    1.0000 </r>
       <r>   -4.9656    1.0000 </r>
       <r>   -4.9632    1.0000 </r>
       <r>   -4.5323    1.0000 </r>
       <r>   -4.4346    1.0000 </r>
       <r>   -4.4325    1.0000 </r>
       <r>   -4.4301    1.0000 </r>
       <r>   -4.0247    1.0000 </r>
       <r>   -4.0187    1.0000 </r>
       <r>   -4.0180    1.0000 </r>
       <r>   -4.0149    1.0000 </r>
       <r>   -4.0141    1.0000 </r>
       <r>   -4.0085    1.0000 </r>
       <r>   -3.8292    1.0000 </r>
       <r>   -3.8244    1.0000 </r>
       <r>   -3.8193    1.0000 </r>
       <r>   -3.3305    1.0000 </r>
       <r>   -3.3284    1.0000 </r>
       <r>   -3.3262    1.0000 </r>
       <r>   -2.9642    1.0000 </r>
       <r>   -2.9590    1.0000 </r>
       <r>   -2.9545    1.0000 </r>
       <r>   -2.7981    1.0000 </r>
       <r>   -2.7938    1.0000 </r>
       <r>   -2.7928    1.0000 </r>
       <r>   -2.7889    1.0000 </r>
       <r>   -2.7880    1.0000 </r>
       <r>   -2.7833    1.0000 </r>
       <r>   -1.2558    1.0000 </r>
       <r>   -1.2523    1.0000 </r>
       <r>   -1.2509    1.0000 </r>
       <r>   -1.2468    1.0000 </r>
       <r>   -1.2455    1.0000 </r>
       <r>   -1.2424    1.0000 </r>
       <r>   -1.1555    1.0000 </r>
       <r>   -1.1512    1.0000 </r>
       <r>   -1.1468    1.0000 </r>
       <r>   -1.0358    1.0000 </r>
       <r>   -1.0326    1.0000 </r>
       <r>   -1.0290    1.0000 </r>
       <r>   -0.9537    1.0000 </r>
       <r>   -0.9468    1.0000 </r>
       <r>   -0.9395    1.0000 </r>
       <r>   -0.2446    1.0000 </r>
       <r>   -0.1666    1.0000 </r>
       <r>   -0.1651    1.0000 </r>
       <r>   -0.1619    1.0000 </r>
       <r>   -0.1584    1.0000 </r>
       <r>   -0.1551    1.0000 </r>
       <r>   -0.1536    1.0000 </r>
       <r>    0.7093    1.0000 </r>
       <r>    0.7143    1.0000 </r>
       <r>    0.7192    1.0000 </r>
       <r>    1.0456    1.0000 </r>
       <r>    1.0471    1.0000 </r>
       <r>    1.0485    1.0000 </r>
       <r>    1.6529    1.0000 </r>
       <r>    1.6540    1.0000 </r>
       <r>    1.6556    1.0000 </r>
       <r>    1.6583    1.0000 </r>
       <r>    1.6596    1.0000 </r>
       <r>    1.6607    1.0000 </r>
       <r>    1.7137    1.0000 </r>
       <r>    1.7161    1.0000 </r>
       <r>    1.7190    1.0000 </r>
       <r>    2.2655    1.0000 </r>
       <r>    2.2677    1.0000 </r>
       <r>    2.2699    1.0000 </r>
       <r>    2.3647    1.0000 </r>
       <r>    2.3664    1.0000 </r>
       <r>    2.3704    1.0000 </r>
       <r>    2.3714    1.0000 </r>
       <r>    2.3748    1.0000 </r>
       <r>    2.3765    1.0000 </r>
       <r>    2.4224    1.0000 </r>
       <r>    2.4254    1.0000 </r>
       <r>    2.4279    1.0000 </r>
       <r>    2.7307    1.0000 </r>
       <r>    2.7323    1.0000 </r>
       <r>    2.7344    1.0000 </r>
       <r>    2.7356    1.0000 </r>
       <r>    2.7378    1.0000 </r>
       <r>    2.7391    1.0000 </r>
       <r>    2.9972    1.0000 </r>
       <r>    2.9993    1.0000 </r>
       <r>    3.0010    1.0000 </r>
       <r>    3.0124    1.0000 </r>
       <r>    3.0134    1.0000 </r>
       <r>    3.0149    1.0000 </r>
       <r>    3.3586    1.0000 </r>
       <r>    3.3621    1.0000 </r>
       <r>    3.3648    1.0000 </r>
       <r>    3.3797    1.0000 </r>
       <r>    3.3844    1.0000 </r>
       <r>    3.3892    1.0000 </r>
       <r>    3.4643    1.0000 </r>
       <r>    3.4666    1.0000 </r>
       <r>    3.4690    1.0000 </r>
       <r>    3.7326    1.0000 </r>
       <r>    3.7390    1.0000 </r>
       <r>    3.7409    1.0000 </r>
       <r>    3.7417    1.0000 </r>
       <r>    3.7436    1.0000 </r>
       <r>    3.7497    1.0000 </r>
       <r>    3.7779    1.0000 </r>
       <r>    3.7809    1.0000 </r>
       <r>    3.7836    1.0000 </r>
       <r>    4.0405    1.0000 </r>
       <r>    4.0956    1.0000 </r>
       <r>    4.0980    1.0000 </r>
       <r>    4.1003    1.0000 </r>
       <r>    4.3383    1.0000 </r>
       <r>    4.3410    1.0000 </r>
       <r>    4.3439    1.0000 </r>
       <r>    4.4006    1.0000 </r>
       <r>    4.4056    1.0000 </r>
       <r>    4.4114    1.0000 </r>
       <r>    4.5629    1.0000 </r>
       <r>    4.5630    1.0000 </r>
       <r>    4.8662    1.0000 </r>
       <r>    4.8700    1.0000 </r>
       <r>    4.8739    1.0000 </r>
       <r>    5.3496    1.0000 </r>
       <r>    5.3499    1.0000 </r>
       <r>    6.5596    0.0000 </r>
       <r>    6.5634    0.0000 </r>
       <r>    6.5672    0.0000 </r>
       <r>    6.9997    0.0000 </r>
       <r>    7.0045    0.0000 </r>
       <r>    7.0090    0.0000 </r>
       <r>    7.2337    0.0000 </r>
       <r>    7.4871    0.0000 </r>
       <r>    7.4908    0.0000 </r>
       <r>    7.4943    0.0000 </r>
       <r>    7.6151    0.0000 </r>
       <r>    7.6195    0.0000 </r>
       <r>    7.6240    0.0000 </r>
       <r>    7.7768    0.0000 </r>
       <r>    7.7798    0.0000 </r>
       <r>    7.7821    0.0000 </r>
       <r>    7.7983    0.0000 </r>
       <r>    7.8016    0.0000 </r>
       <r>    7.8046    0.0000 </r>
       <r>    8.0252    0.0000 </r>
       <r>    8.0263    0.0000 </r>
       <r>    8.0292    0.0000 </r>
       <r>    8.0318    0.0000 </r>
       <r>    8.0346    0.0000 </r>
       <r>    8.0357    0.0000 </r>
       <r>    8.0816    0.0000 </r>
       <r>    8.2920    0.0000 </r>
       <r>    8.2950    0.0000 </r>
       <r>    8.2979    0.0000 </r>
       <r>    8.4942    0.0000 </r>
       <r>    8.4979    0.0000 </r>
       <r>    8.5015    0.0000 </r>
       <r>    8.5054    0.0000 </r>
       <r>    8.5097    0.0000 </r>
       <r>    8.5166    0.0000 </r>
       <r>    8.5406    0.0000 </r>
      </set>
      <set comment="kpoint 4">
       <r>   -5.9932    1.0000 </r>
       <r>   -5.4687    1.0000 </r>
       <r>   -5.4647    1.0000 </r>
       <r>   -5.4609    1.0000 </r>
       <r>   -4.9694    1.0000 </r>
       <r>   -4.9655    1.0000 </r>
       <r>   -4.9617    1.0000 </r>
       <r>   -4.5323    1.0000 </r>
       <r>   -4.4366    1.0000 </r>
       <r>   -4.4324    1.0000 </r>
       <r>   -4.4284    1.0000 </r>
       <r>   -4.0258    1.0000 </r>
       <r>   -4.0191    1.0000 </r>
       <r>   -4.0170    1.0000 </r>
       <r>   -4.0157    1.0000 </r>
       <r>   -4.0138    1.0000 </r>
       <r>   -4.0074    1.0000 </r>
       <r>   -3.8291    1.0000 </r>
       <r>   -3.8244    1.0000 </r>
       <r>   -3.8192    1.0000 </r>
       <r>   -3.3332    1.0000 </r>
       <r>   -3.3283    1.0000 </r>
       <r>   -3.3236    1.0000 </r>
       <r>   -2.9642    1.0000 </r>
       <r>   -2.9590    1.0000 </r>
       <r>   -2.9545    1.0000 </r>
       <r>   -2.7995    1.0000 </r>
       <r>   -2.7933    1.0000 </r>
       <r>   -2.7917    1.0000 </r>
       <r>   -2.7901    1.0000 </r>
       <r>   -2.7884    1.0000 </r>
       <r>   -2.7820    1.0000 </r>
       <r>   -1.2564    1.0000 </r>
       <r>   -1.2506    1.0000 </r>
       <r>   -1.2491    1.0000 </r>
       <r>   -1.2482    1.0000 </r>
       <r>   -1.2471    1.0000 </r>
       <r>   -1.2419    1.0000 </r>
       <r>   -1.1554    1.0000 </r>
       <r>   -1.1515    1.0000 </r>
       <r>   -1.1467    1.0000 </r>
       <r>   -1.0358    1.0000 </r>
       <r>   -1.0325    1.0000 </r>
       <r>   -1.0290    1.0000 </r>
       <r>   -0.9515    1.0000 </r>
       <r>   -0.9468    1.0000 </r>
       <r>   -0.9419    1.0000 </r>
       <r>   -0.2446    1.0000 </r>
       <r>   -0.1671    1.0000 </r>
       <r>   -0.1622    1.0000 </r>
       <r>   -0.1612    1.0000 </r>
       <r>   -0.1590    1.0000 </r>
       <r>   -0.1580    1.0000 </r>
       <r>   -0.1530    1.0000 </r>
       <r>    0.7092    1.0000 </r>
       <r>    0.7143    1.0000 </r>
       <r>    0.7193    1.0000 </r>
       <r>    1.0449    1.0000 </r>
       <r>    1.0471    1.0000 </r>
       <r>    1.0493    1.0000 </r>
       <r>    1.6533    1.0000 </r>
       <r>    1.6539    1.0000 </r>
       <r>    1.6566    1.0000 </r>
       <r>    1.6574    1.0000 </r>
       <r>    1.6596    1.0000 </r>
       <r>    1.6605    1.0000 </r>
       <r>    1.7145    1.0000 </r>
       <r>    1.7162    1.0000 </r>
       <r>    1.7179    1.0000 </r>
       <r>    2.2655    1.0000 </r>
       <r>    2.2677    1.0000 </r>
       <r>    2.2699    1.0000 </r>
       <r>    2.3648    1.0000 </r>
       <r>    2.3667    1.0000 </r>
       <r>    2.3694    1.0000 </r>
       <r>    2.3725    1.0000 </r>
       <r>    2.3743    1.0000 </r>
       <r>    2.3768    1.0000 </r>
       <r>    2.4226    1.0000 </r>
       <r>    2.4253    1.0000 </r>
       <r>    2.4277    1.0000 </r>
       <r>    2.7306    1.0000 </r>
       <r>    2.7320    1.0000 </r>
       <r>    2.7336    1.0000 </r>
       <r>    2.7363    1.0000 </r>
       <r>    2.7381    1.0000 </r>
       <r>    2.7391    1.0000 </r>
       <r>    2.9972    1.0000 </r>
       <r>    2.9992    1.0000 </r>
       <r>    3.0009    1.0000 </r>
       <r>    3.0114    1.0000 </r>
       <r>    3.0140    1.0000 </r>
       <r>    3.0154    1.0000 </r>
       <r>    3.3586    1.0000 </r>
       <r>    3.3620    1.0000 </r>
       <r>    3.3652    1.0000 </r>
       <r>    3.3795    1.0000 </r>
       <r>    3.3845    1.0000 </r>
       <r>    3.3890    1.0000 </r>
       <r>    3.4643    1.0000 </r>
       <r>    3.4666    1.0000 </r>
       <r>    3.4690    1.0000 </r>
       <r>    3.7330    1.0000 </r>
       <r>    3.7382    1.0000 </r>
       <r>    3.7412    1.0000 </r>
       <r>    3.7414    1.0000 </r>
       <r>    3.7444    1.0000 </r>
       <r>    3.7491    1.0000 </r>
       <r>    3.7782    1.0000 </r>
       <r>    3.7808    1.0000 </r>
       <r>    3.7835    1.0000 </r>
       <r>    4.0405    1.0000 </r>
       <r>    4.0956    1.0000 </r>
       <r>    4.0980    1.0000 </r>
       <r>    4.1003    1.0000 </r>
       <r>    4.3385    1.0000 </r>
       <r>    4.3410    1.0000 </r>
       <r>    4.3436    1.0000 </r>
       <r>    4.4013    1.0000 </r>
       <r>    4.4056    1.0000 </r>
       <r>    4.4105    1.0000 </r>
       <r>    4.5629    1.0000 </r>
       <r>    4.5630    1.0000 </r>
       <r>    4.8668    1.0000 </r>
       <r>    4.8700    1.0000 </r>
       <r>    4.8733    1.0000 </r>
       <r>    5.3497    1.0000 </r>
       <r>    5.3499    1.0000 </r>
       <r>    6.5596    0.0000 </r>
       <r>    6.5634    0.0000 </r>
       <r>    6.5671    0.0000 </r>
       <r>    7.0008    0.0000 </r>
       <r>    7.0045    0.0000 </r>
       <r>    7.0080    0.0000 </r>
       <r>    7.2337    0.0000 </r>
       <r>    7.4877    0.0000 </r>
       <r>    7.4909    0.0000 </r>
       <r>    7.4936    0.0000 </r>
       <r>    7.6151    0.0000 </r>
       <r>    7.6194    0.0000 </r>
       <r>    7.6240    0.0000 </r>
       <r>    7.7762    0.0000 </r>
       <r>    7.7800    0.0000 </r>
       <r>    7.7830    0.0000 </r>
       <r>    7.7981    0.0000 </r>
       <r>    7.8013    0.0000 </r>
       <r>    7.8044    0.0000 </r>
       <r>    8.0241    0.0000 </r>
       <r>    8.0265    0.0000 </r>
       <r>    8.0304    0.0000 </r>
       <r>    8.0309    0.0000 </r>
       <r>    8.0345    0.0000 </r>
       <r>    8.0365    0.0000 </r>
       <r>    8.0814    0.0000 </r>
       <r>    8.2930    0.0000 </r>
       <r>    8.2950    0.0000 </r>
       <r>    8.2970    0.0000 </r>
       <r>    8.4934    0.0000 </r>
       <r>    8.4997    0.0000 </r>
       <r>    8.5020    0.0000 </r>
       <r>    8.5053    0.0000 </r>
       <r>    8.5074    0.0000 </r>
       <r>    8.5170    0.0000 </r>
       <r>    8.5394    0.0000 </r>
      </set>
     </set>
    </set>
   </array>
  </eigenvalues>
  <separator name="orbital magnetization" >
   <v name="MAGDIPOLOUT">      0.00000000      0.00000000      0.00000000</v>
  </separator>
  <dos>
   <i name="efermi">      5.59999417 </i>
   <total>
    <array>
     <dimension dim="1">gridpoints</dimension>
     <dimension dim="2">spin</dimension>
     <field>energy</field>
     <field>total</field>
     <field>integrated</field>
     <set>
      <set comment="spin 1">
       <r>    -6.7203     0.0000     0.0000 </r>
       <r>    -6.6670     0.0000     0.0000 </r>
       <r>    -6.6136     0.0000     0.0000 </r>
       <r>    -6.5603     0.0000     0.0000 </r>
       <r>    -6.5070     0.0000     0.0000 </r>
       <r>    -6.4537     0.0000     0.0000 </r>
       <r>    -6.4004     0.0000     0.0000 </r>
       <r>    -6.3470     0.0000     0.0000 </r>
       <r>    -6.2937     0.0000     0.0000 </r>
       <r>    -6.2404     0.0000     0.0000 </r>
       <r>    -6.1871     0.0000     0.0000 </r>
       <r>    -6.1338     0.0013     0.0001 </r>
       <r>    -6.0804     0.2536     0.0136 </r>
       <r>    -6.0271     6.0687     0.3372 </r>
       <r>    -5.9738    20.2434     1.4166 </r>
       <r>    -5.9205    10.1971     1.9603 </r>
       <r>    -5.8672     0.7384     1.9996 </r>
       <r>    -5.8138     0.0068     2.0000 </r>
       <r>    -5.7605     0.0000     2.0000 </r>
       <r>    -5.7072     0.0000     2.0000 </r>
       <r>    -5.6539     0.0000     2.0000 </r>
       <r>    -5.6006     0.0072     2.0004 </r>
       <r>    -5.5472     1.1214     2.0602 </r>
       <r>    -5.4939    22.0110     3.2338 </r>
       <r>    -5.4406    61.5205     6.5141 </r>
       <r>    -5.3873    26.2444     7.9134 </r>
       <r>    -5.3340     1.6108     7.9993 </r>
       <r>    -5.2806     0.0126     8.0000 </r>
       <r>    -5.2273     0.0000     8.0000 </r>
       <r>    -5.1740     0.0000     8.0000 </r>
       <r>    -5.1207     0.0007     8.0000 </r>
       <r>    -5.0674     0.2288     8.0122 </r>
       <r>    -5.0140     9.4058     8.5138 </r>
       <r>    -4.9607    52.6944    11.3234 </r>
       <r>    -4.9074    44.5066    13.6965 </r>
       <r>    -4.8541     5.5975    13.9950 </r>
       <r>    -4.8008     0.0939    14.0000 </r>
       <r>    -4.7474     0.0002    14.0000 </r>
       <r>    -4.6941     0.0001    14.0000 </r>
       <r>    -4.6408     0.0401    14.0021 </r>
       <r>    -4.5875     2.1817    14.1185 </r>
       <r>    -4.5342    15.9685    14.9699 </r>
       <r>    -4.4808    26.2864    16.3715 </r>
       <r>    -4.4275    55.4632    19.3288 </r>
       <r>    -4.3742    44.4457    21.6987 </r>
       <r>    -4.3209     5.5585    21.9950 </r>
       <r>    -4.2676     0.0928    22.0000 </r>
       <r>    -4.2142     0.0002    22.0000 </r>
       <r>    -4.1609     0.0058    22.0003 </r>
       <r>    -4.1076     1.1962    22.0641 </r>
       <r>    -4.0543    31.3631    23.7364 </r>
       <r>    -4.0010   117.7422    30.0144 </r>
       <r>    -3.9476    68.7120    33.6781 </r>
       <r>    -3.8943     8.6924    34.1416 </r>
       <r>    -3.8410    33.2319    35.9135 </r>
       <r>    -3.7877    59.6431    39.0937 </r>
       <r>    -3.7344    16.3637    39.9662 </r>
       <r>    -3.6810     0.6304    39.9998 </r>
       <r>    -3.6277     0.0030    40.0000 </r>
       <r>    -3.5744     0.0000    40.0000 </r>
       <r>    -3.5211     0.0000    40.0000 </r>
       <r>    -3.4678     0.0048    40.0003 </r>
       <r>    -3.4144     0.8546    40.0458 </r>
       <r>    -3.3611    19.1657    41.0677 </r>
       <r>    -3.3078    60.8646    44.3130 </r>
       <r>    -3.2545    29.5372    45.8880 </r>
       <r>    -3.2012     2.0820    45.9990 </r>
       <r>    -3.1478     0.0190    46.0000 </r>
       <r>    -3.0945     0.0078    46.0004 </r>
       <r>    -3.0412     1.1728    46.0630 </r>
       <r>    -2.9879    22.4298    47.2589 </r>
       <r>    -2.9346    61.4910    50.5376 </r>
       <r>    -2.8812    27.1123    51.9833 </r>
       <r>    -2.8279    33.9013    53.7909 </r>
       <r>    -2.7746   118.4270    60.1054 </r>
       <r>    -2.7213    67.2759    63.6926 </r>
       <r>    -2.6680     5.7012    63.9966 </r>
       <r>    -2.6146     0.0644    64.0000 </r>
       <r>    -2.5613     0.0001    64.0000 </r>
       <r>    -2.5080     0.0000    64.0000 </r>
       <r>    -2.4547     0.0000    64.0000 </r>
       <r>    -2.4014     0.0000    64.0000 </r>
       <r>    -2.3480     0.0000    64.0000 </r>
       <r>    -2.2947     0.0000    64.0000 </r>
       <r>    -2.2414     0.0000    64.0000 </r>
       <r>    -2.1881     0.0000    64.0000 </r>
       <r>    -2.1348     0.0000    64.0000 </r>
       <r>    -2.0814     0.0000    64.0000 </r>
       <r>    -2.0281     0.0000    64.0000 </r>
       <r>    -1.9748     0.0000    64.0000 </r>
       <r>    -1.9215     0.0000    64.0000 </r>
       <r>    -1.8682     0.0000    64.0000 </r>
       <r>    -1.8148     0.0000    64.0000 </r>
       <r>    -1.7615     0.0000    64.0000 </r>
       <r>    -1.7082     0.0000    64.0000 </r>
       <r>    -1.6549     0.0000    64.0000 </r>
       <r>    -1.6015     0.0000    64.0000 </r>
       <r>    -1.5482     0.0000    64.0000 </r>
       <r>    -1.4949     0.0000    64.0000 </r>
       <r>    -1.4416     0.0000    64.0000 </r>
       <r>    -1.3883     0.0106    64.0006 </r>
       <r>    -1.3349     1.7794    64.0954 </r>
       <r>    -1.2816    38.6525    66.1564 </r>
       <r>    -1.2283   122.8766    72.7082 </r>
       <r>    -1.1750    85.6445    77.2748 </r>
       <r>    -1.1217    66.3384    80.8119 </r>
       <r>    -1.0683    38.7615    82.8787 </r>
       <r>    -1.0150    64.2414    86.3041 </r>
       <r>    -0.9617    67.2055    89.8875 </r>
       <r>    -0.9084    61.1147    93.1461 </r>
       <r>    -0.8551    15.4291    93.9688 </r>
       <r>    -0.8017     0.5828    93.9998 </r>
       <r>    -0.7484     0.0028    94.0000 </r>
       <r>    -0.6951     0.0000    94.0000 </r>
       <r>    -0.6418     0.0000    94.0000 </r>
       <r>    -0.5885     0.0000    94.0000 </r>
       <r>    -0.5351     0.0000    94.0000 </r>
       <r>    -0.4818     0.0000    94.0000 </r>
       <r>    -0.4285     0.0000    94.0000 </r>
       <r>    -0.3752     0.0041    94.0002 </r>
       <r>    -0.3219     0.5370    94.0289 </r>
       <r>    -0.2685     9.0638    94.5121 </r>
       <r>    -0.2152    34.0658    96.3285 </r>
       <r>    -0.1619   101.4777   101.7393 </r>
       <r>    -0.1086   100.6636   107.1067 </r>
       <r>    -0.0553    16.3813   107.9802 </r>
       <r>    -0.0019     0.3708   107.9999 </r>
       <r>     0.0514     0.0010   108.0000 </r>
       <r>     0.1047     0.0000   108.0000 </r>
       <r>     0.1580     0.0000   108.0000 </r>
       <r>     0.2113     0.0000   108.0000 </r>
       <r>     0.2647     0.0000   108.0000 </r>
       <r>     0.3180     0.0000   108.0000 </r>
       <r>     0.3713     0.0000   108.0000 </r>
       <r>     0.4246     0.0000   108.0000 </r>
       <r>     0.4779     0.0000   108.0000 </r>
       <r>     0.5313     0.0000   108.0000 </r>
       <r>     0.5846     0.0156   108.0008 </r>
       <r>     0.6379     1.8020   108.0969 </r>
       <r>     0.6912    27.3299   109.5541 </r>
       <r>     0.7445    61.0683   112.8103 </r>
       <r>     0.7979    21.2335   113.9425 </r>
       <r>     0.8512     1.0717   113.9996 </r>
       <r>     0.9045     0.0101   114.0002 </r>
       <r>     0.9578     0.6531   114.0350 </r>
       <r>     1.0111    16.7768   114.9295 </r>
       <r>     1.0645    60.0211   118.1299 </r>
       <r>     1.1178    32.4997   119.8627 </r>
       <r>     1.1711     2.5484   119.9986 </r>
       <r>     1.2244     0.0257   120.0000 </r>
       <r>     1.2777     0.0000   120.0000 </r>
       <r>     1.3311     0.0000   120.0000 </r>
       <r>     1.3844     0.0000   120.0000 </r>
       <r>     1.4377     0.0000   120.0000 </r>
       <r>     1.4910     0.0003   120.0000 </r>
       <r>     1.5443     0.1688   120.0090 </r>
       <r>     1.5977    10.5489   120.5715 </r>
       <r>     1.6510    90.6023   125.4024 </r>
       <r>     1.7043   144.8063   133.1235 </r>
       <r>     1.7576    77.3357   137.2470 </r>
       <r>     1.8109    13.7009   137.9776 </r>
       <r>     1.8643     0.4190   137.9999 </r>
       <r>     1.9176     0.0016   138.0000 </r>
       <r>     1.9709     0.0000   138.0000 </r>
       <r>     2.0242     0.0000   138.0000 </r>
       <r>     2.0775     0.0000   138.0000 </r>
       <r>     2.1309     0.0062   138.0003 </r>
       <r>     2.1842     1.0232   138.0549 </r>
       <r>     2.2375    21.1314   139.1816 </r>
       <r>     2.2908    64.2377   142.6068 </r>
       <r>     2.3441    76.7472   146.6989 </r>
       <r>     2.3975   147.8987   154.5849 </r>
       <r>     2.4508   109.8785   160.4436 </r>
       <r>     2.5041    27.7105   161.9212 </r>
       <r>     2.5574     1.4678   161.9994 </r>
       <r>     2.6107     0.0635   162.0028 </r>
       <r>     2.6641     5.1160   162.2756 </r>
       <r>     2.7174    64.7013   165.7255 </r>
       <r>     2.7707   119.8531   172.1161 </r>
       <r>     2.8240    33.9680   173.9272 </r>
       <r>     2.8773     1.3969   174.0017 </r>
       <r>     2.9307     4.0190   174.2160 </r>
       <r>     2.9840    56.2041   177.2128 </r>
       <r>     3.0373   120.7135   183.6493 </r>
       <r>     3.0906    41.8819   185.8824 </r>
       <r>     3.1439     2.1899   185.9992 </r>
       <r>     3.1973     0.0155   186.0000 </r>
       <r>     3.2506     0.1050   186.0056 </r>
       <r>     3.3039     6.9538   186.3764 </r>
       <r>     3.3572    68.3517   190.0209 </r>
       <r>     3.4105   120.4255   196.4420 </r>
       <r>     3.4639    80.3364   200.7255 </r>
       <r>     3.5172    52.7659   203.5390 </r>
       <r>     3.5705     8.4566   203.9899 </r>
       <r>     3.6238     0.2999   204.0059 </r>
       <r>     3.6771     8.2041   204.4434 </r>
       <r>     3.7305    86.2505   209.0423 </r>
       <r>     3.7838   164.3639   217.8062 </r>
       <r>     3.8371    71.5395   221.6206 </r>
       <r>     3.8904     7.0004   221.9939 </r>
       <r>     3.9437     0.2312   222.0062 </r>
       <r>     3.9971     4.2410   222.2324 </r>
       <r>     4.0504    28.5829   223.7564 </r>
       <r>     4.1037    66.6649   227.3110 </r>
       <r>     4.1570    45.0466   229.7129 </r>
       <r>     4.2103     5.3129   229.9962 </r>
       <r>     4.2637     1.7071   230.0872 </r>
       <r>     4.3170    27.0562   231.5298 </r>
       <r>     4.3703    78.7326   235.7279 </r>
       <r>     4.4236    81.6902   240.0836 </r>
       <r>     4.4769    33.8926   241.8907 </r>
       <r>     4.5303    15.3493   242.7092 </r>
       <r>     4.5836    40.7369   244.8813 </r>
       <r>     4.6369    19.6145   245.9271 </r>
       <r>     4.6902     1.3552   245.9994 </r>
       <r>     4.7435     0.0324   246.0011 </r>
       <r>     4.7969     2.1833   246.1175 </r>
       <r>     4.8502    30.1699   247.7262 </r>
       <r>     4.9035    60.6791   250.9616 </r>
       <r>     4.9568    18.6587   251.9565 </r>
       <r>     5.0101     0.8120   251.9998 </r>
       <r>     5.0635     0.0045   252.0000 </r>
       <r>     5.1168     0.0000   252.0000 </r>
       <r>     5.1701     0.0000   252.0000 </r>
       <r>     5.2234     0.0132   252.0007 </r>
       <r>     5.2767     1.4462   252.0778 </r>
       <r>     5.3301    20.2022   253.1550 </r>
       <r>     5.3834    40.5451   255.3169 </r>
       <r>     5.4367    12.2897   255.9721 </r>
       <r>     5.4900     0.5196   255.9999 </r>
       <r>     5.5433     0.0027   256.0000 </r>
       <r>     5.5967     0.0000   256.0000 </r>
       <r>     5.6500     0.0000   256.0000 </r>
       <r>     5.7033     0.0000   256.0000 </r>
       <r>     5.7566     0.0000   256.0000 </r>
       <r>     5.8099     0.0000   256.0000 </r>
       <r>     5.8633     0.0000   256.0000 </r>
       <r>     5.9166     0.0000   256.0000 </r>
       <r>     5.9699     0.0000   256.0000 </r>
       <r>     6.0232     0.0000   256.0000 </r>
       <r>     6.0765     0.0000   256.0000 </r>
       <r>     6.1299     0.0000   256.0000 </r>
       <r>     6.1832     0.0000   256.0000 </r>
       <r>     6.2365     0.0000   256.0000 </r>
       <r>     6.2898     0.0000   256.0000 </r>
       <r>     6.3431     0.0000   256.0000 </r>
       <r>     6.3965     0.0001   256.0000 </r>
       <r>     6.4498     0.0754   256.0040 </r>
       <r>     6.5031     4.9217   256.2665 </r>
       <r>     6.5564    42.5036   258.5327 </r>
       <r>     6.6097    54.3021   261.4281 </r>
       <r>     6.6631    10.4497   261.9853 </r>
       <r>     6.7164     0.2744   262.0000 </r>
       <r>     6.7697     0.0009   262.0000 </r>
       <r>     6.8230     0.0000   262.0000 </r>
       <r>     6.8763     0.0178   262.0010 </r>
       <r>     6.9297     1.9831   262.1067 </r>
       <r>     6.9830    28.7565   263.6400 </r>
       <r>     7.0363    60.9477   266.8897 </r>
       <r>     7.0896    19.8899   267.9503 </r>
       <r>     7.1429     1.1197   268.0100 </r>
       <r>     7.1963     5.2423   268.2895 </r>
       <r>     7.2496    19.8233   269.3464 </r>
       <r>     7.3029    11.3128   269.9496 </r>
       <r>     7.3562     0.9429   269.9999 </r>
       <r>     7.4095     1.2512   270.0666 </r>
       <r>     7.4629    23.1042   271.2986 </r>
       <r>     7.5162    61.7763   274.5925 </r>
       <r>     7.5695    33.8228   276.3959 </r>
       <r>     7.6228    52.9813   279.2209 </r>
       <r>     7.6761    46.1235   281.6802 </r>
       <r>     7.7295    17.0911   282.5915 </r>
       <r>     7.7828    82.8732   287.0103 </r>
       <r>     7.8361   106.4553   292.6865 </r>
       <r>     7.8894    23.8073   293.9559 </r>
       <r>     7.9427     2.3741   294.0825 </r>
       <r>     7.9961    36.3303   296.0196 </r>
       <r>     8.0494   126.9955   302.7910 </r>
       <r>     8.1027    82.6183   307.1962 </r>
       <r>     8.1560    14.3748   307.9627 </r>
       <r>     8.2093     1.5727   308.0466 </r>
       <r>     8.2627    19.4672   309.0846 </r>
       <r>     8.3160    61.0493   312.3397 </r>
       <r>     8.3693    29.1366   313.8933 </r>
       <r>     8.4226     4.6236   314.1398 </r>
       <r>     8.4759    46.7356   316.6318 </r>
       <r>     8.5293   133.2224   323.7352 </r>
       <r>     8.5826    71.6373   327.5549 </r>
       <r>     8.6359     8.1579   327.9899 </r>
       <r>     8.6892     0.1892   328.0000 </r>
       <r>     8.7425     0.0007   328.0000 </r>
       <r>     8.7959     0.0000   328.0000 </r>
       <r>     8.8492     0.0000   328.0000 </r>
       <r>     8.9025     0.0000   328.0000 </r>
       <r>     8.9558     0.0000   328.0000 </r>
       <r>     9.0091     0.0000   328.0000 </r>
       <r>     9.0625     0.0000   328.0000 </r>
       <r>     9.1158     0.0000   328.0000 </r>
       <r>     9.1691     0.0000   328.0000 </r>
       <r>     9.2224     0.0000   328.0000 </r>
       <r>     9.2757     0.0000   328.0000 </r>
      </set>
     </set>
    </array>
   </total>
  </dos>
 </calculation>
 <structure name="finalpos" >
  <crystal>
   <varray name="basis" >
    <v>      10.93252578       0.00000000       0.00000000 </v>
    <v>       0.00000000      10.93252578       0.00000000 </v>
    <v>       0.00000000       0.00000000      10.93252578 </v>
   </varray>
   <i name="volume">   1306.65679237 </i>
   <varray name="rec_basis" >
    <v>       0.09147017       0.00000000       0.00000000 </v>
    <v>       0.00000000       0.09147017       0.00000000 </v>
    <v>       0.00000000       0.00000000       0.09147017 </v>
   </varray>
  </crystal>
  <varray name="positions" >
   <v>       0.44024411       0.43750000       0.43750000 </v>
   <v>       0.93750000       0.43750000       0.43750000 </v>
   <v>       0.43750000       0.93750000       0.43750000 </v>
   <v>       0.93750000       0.93750000       0.43750000 </v>
   <v>       0.43750000       0.43750000       0.93750000 </v>
   <v>       0.93750000       0.43750000       0.93750000 </v>
   <v>       0.43750000       0.93750000       0.93750000 </v>
   <v>       0.93750000       0.93750000       0.93750000 </v>
   <v>       0.43750000       0.18750000       0.18750000 </v>
   <v>       0.93750000       0.18750000       0.18750000 </v>
   <v>       0.43750000       0.68750000       0.18750000 </v>
   <v>       0.93750000       0.68750000       0.18750000 </v>
   <v>       0.43750000       0.18750000       0.68750000 </v>
   <v>       0.93750000       0.18750000       0.68750000 </v>
   <v>       0.43750000       0.68750000       0.68750000 </v>
   <v>       0.93750000       0.68750000       0.68750000 </v>
   <v>       0.18750000       0.43750000       0.18750000 </v>
   <v>       0.68750000       0.43750000       0.18750000 </v>
   <v>       0.18750000       0.93750000       0.18750000 </v>
   <v>       0.68750000       0.93750000       0.18750000 </v>
   <v>       0.18750000       0.43750000       0.68750000 </v>
   <v>       0.68750000       0.43750000       0.68750000 </v>
   <v>       0.18750000       0.93750000       0.68750000 </v>
   <v>       0.68750000       0.93750000       0.68750000 </v>
   <v>       0.18750000       0.18750000       0.43750000 </v>
   <v>       0.68750000       0.18750000       0.43750000 </v>
   <v>       0.18750000       0.68750000       0.43750000 </v>
   <v>       0.68750000       0.68750000       0.43750000 </v>
   <v>       0.18750000       0.18750000       0.93750000 </v>
   <v>       0.68750000       0.18750000       0.93750000 </v>
   <v>       0.18750000       0.68750000       0.93750000 </v>
   <v>       0.68750000       0.68750000       0.93750000 </v>
   <v>       0.06250000       0.06250000       0.06250000 </v>
   <v>       0.56250000       0.06250000       0.06250000 </v>
   <v>       0.06250000       0.56250000       0.06250000 </v>
   <v>       0.56524411       0.56250000       0.06250000 </v>
   <v>       0.06250000       0.06250000       0.56250000 </v>
   <v>       0.56250000       0.06250000       0.56250000 </v>
   <v>       0.06250000       0.56250000       0.56250000 </v>
   <v>       0.56250000       0.56250000       0.56250000 </v>
   <v>       0.06250000       0.31250000       0.31250000 </v>
   <v>       0.56250000       0.31250000       0.31250000 </v>
   <v>       0.06250000       0.81250000       0.31250000 </v>
   <v>       0.56250000       0.81250000       0.31250000 </v>
   <v>       0.06250000       0.31250000       0.81250000 </v>
   <v>       0.56250000       0.31250000       0.81250000 </v>
   <v>       0.06250000       0.81250000       0.81250000 </v>
   <v>       0.56250000       0.81250000       0.81250000 </v>
   <v>       0.31250000       0.06250000       0.31250000 </v>
   <v>       0.81250000       0.06250000       0.31250000 </v>
   <v>       0.31250000       0.56250000       0.31250000 </v>
   <v>       0.81250000       0.56250000       0.31250000 </v>
   <v>       0.31250000       0.06250000       0.81250000 </v>
   <v>       0.81250000       0.06250000       0.81250000 </v>
   <v>       0.31250000       0.56250000       0.81250000 </v>
   <v>       0.81250000       0.56250000       0.81250000 </v>
   <v>       0.31250000       0.31250000       0.06250000 </v>
   <v>       0.81250000       0.31250000       0.06250000 </v>
   <v>       0.31250000       0.81250000       0.06250000 </v>
   <v>       0.81250000       0.81250000       0.06250000 </v>
   <v>       0.31250000       0.31250000       0.56250000 </v>
   <v>       0.81250000       0.31250000       0.56250000 </v>
   <v>       0.31250000       0.81250000       0.56250000 </v>
   <v>       0.81250000       0.81250000       0.56250000 </v>
  </varray>
 </structure>
</modeling>
