
     Program PWSCF v.5.3.0 (svn rev. 11974) starts on  3Feb2016 at 13:34:11 

     This program is part of the open-source Quantum ESPRESSO suite
     for quantum simulation of materials; please cite
         "P. Giannozzi et al., J. Phys.:Condens. Matter 21 395502 (2009);
          URL http://www.quantum-espresso.org", 
     in publications or presentations arising from this work. More details at
     http://www.quantum-espresso.org/quote

     Parallel version (MPI), running on    16 processors
     R & G space division:  proc/nbgrp/npool/nimage =      16
     Reading input from Si.in

     Current dimensions of program PWSCF are:
     Max number of different atomic species (ntypx) = 10
     Max number of k-points (npk) =  40000
     Max angular momentum in pseudopotentials (lmaxx) =  3
               file Si.pbe-n-kjpaw_psl.0.1.UPF: wavefunction(s)  3S renormalized

     Subspace diagonalization in iterative solution of the eigenvalue problem:
     one sub-group per k-point group (pool) will be used
     scalapack distributed-memory algorithm (size of sub-group:  2*  2 procs)

     Message from routine find_sym:
     Not a group! Trying with lower acceptance parameter...
     Message from routine find_sym:
     Still not a group! symmetry disabled
 
     Parallelization info
     --------------------
     sticks:   dense  smooth     PW     G-vecs:    dense   smooth      PW
     Min         424     424    109                26332    26332    3467
     Max         425     425    110                26336    26336    3472
     Sum        6785    6785   1757               421349   421349   55515
 


     bravais-lattice index     =            0
     lattice parameter (alat)  =      20.6591  a.u.
     unit-cell volume          =    8817.2783 (a.u.)^3
     number of atoms/cell      =           64
     number of atomic types    =            1
     number of electrons       =       256.00
     number of Kohn-Sham states=          154
     kinetic-energy cutoff     =      50.0000  Ry
     charge density cutoff     =     200.0000  Ry
     convergence threshold     =      1.0E-09
     mixing beta               =       0.7000
     number of iterations used =            8  plain     mixing
     Exchange-correlation      =  SLA  PW   PBX  PBC ( 1  4  3  4 0 0)

     celldm(1)=  20.659106  celldm(2)=   0.000000  celldm(3)=   0.000000
     celldm(4)=   0.000000  celldm(5)=   0.000000  celldm(6)=   0.000000

     crystal axes: (cart. coord. in units of alat)
               a(1) = (   1.000000   0.000000   0.000000 )  
               a(2) = (   0.000000   1.000000   0.000000 )  
               a(3) = (   0.000000   0.000000   1.000000 )  

     reciprocal axes: (cart. coord. in units 2 pi/alat)
               b(1) = (  1.000000  0.000000  0.000000 )  
               b(2) = (  0.000000  1.000000  0.000000 )  
               b(3) = (  0.000000  0.000000  1.000000 )  


     PseudoPot. # 1 for Si read from file:
     /home/togo/espresso/pseudo/Si.pbe-n-kjpaw_psl.0.1.UPF
     MD5 check sum: b9d333a40e496bef61db012f150758bf
     Pseudo is Projector augmented-wave + core cor, Zval =  4.0
     Generated using "atomic" code by A. Dal Corso  v.5.0.2 svn rev. 9415
     Shape of augmentation charge: PSQ
     Using radial grid of 1141 points,  4 beta functions with: 
                l(1) =   0
                l(2) =   0
                l(3) =   1
                l(4) =   1
     Q(r) pseudized with 0 coefficients 


     atomic species   valence    mass     pseudopotential
        Si             4.00    28.08550     Si( 1.00)

     No symmetry found



   Cartesian axes

     site n.     atom                  positions (alat units)
         1           Si  tau(   1) = (   0.4404043   0.4375000   0.4375000  )
         2           Si  tau(   2) = (   0.9375000   0.4375000   0.4375000  )
         3           Si  tau(   3) = (   0.4375000   0.9375000   0.4375000  )
         4           Si  tau(   4) = (   0.9375000   0.9375000   0.4375000  )
         5           Si  tau(   5) = (   0.4375000   0.4375000   0.9375000  )
         6           Si  tau(   6) = (   0.9375000   0.4375000   0.9375000  )
         7           Si  tau(   7) = (   0.4375000   0.9375000   0.9375000  )
         8           Si  tau(   8) = (   0.9375000   0.9375000   0.9375000  )
         9           Si  tau(   9) = (   0.4375000   0.1875000   0.1875000  )
        10           Si  tau(  10) = (   0.9375000   0.1875000   0.1875000  )
        11           Si  tau(  11) = (   0.4404043   0.6875000   0.1875000  )
        12           Si  tau(  12) = (   0.9375000   0.6875000   0.1875000  )
        13           Si  tau(  13) = (   0.4375000   0.1875000   0.6875000  )
        14           Si  tau(  14) = (   0.9375000   0.1875000   0.6875000  )
        15           Si  tau(  15) = (   0.4375000   0.6875000   0.6875000  )
        16           Si  tau(  16) = (   0.9375000   0.6875000   0.6875000  )
        17           Si  tau(  17) = (   0.1875000   0.4375000   0.1875000  )
        18           Si  tau(  18) = (   0.6875000   0.4375000   0.1875000  )
        19           Si  tau(  19) = (   0.1875000   0.9375000   0.1875000  )
        20           Si  tau(  20) = (   0.6875000   0.9375000   0.1875000  )
        21           Si  tau(  21) = (   0.1875000   0.4375000   0.6875000  )
        22           Si  tau(  22) = (   0.6875000   0.4375000   0.6875000  )
        23           Si  tau(  23) = (   0.1875000   0.9375000   0.6875000  )
        24           Si  tau(  24) = (   0.6875000   0.9375000   0.6875000  )
        25           Si  tau(  25) = (   0.1875000   0.1875000   0.4375000  )
        26           Si  tau(  26) = (   0.6875000   0.1875000   0.4375000  )
        27           Si  tau(  27) = (   0.1875000   0.6875000   0.4375000  )
        28           Si  tau(  28) = (   0.6875000   0.6875000   0.4375000  )
        29           Si  tau(  29) = (   0.1875000   0.1875000   0.9375000  )
        30           Si  tau(  30) = (   0.6875000   0.1875000   0.9375000  )
        31           Si  tau(  31) = (   0.1875000   0.6875000   0.9375000  )
        32           Si  tau(  32) = (   0.6875000   0.6875000   0.9375000  )
        33           Si  tau(  33) = (   0.0625000   0.0625000   0.0625000  )
        34           Si  tau(  34) = (   0.5625000   0.0625000   0.0625000  )
        35           Si  tau(  35) = (   0.0625000   0.5625000   0.0625000  )
        36           Si  tau(  36) = (   0.5625000   0.5625000   0.0625000  )
        37           Si  tau(  37) = (   0.0625000   0.0625000   0.5625000  )
        38           Si  tau(  38) = (   0.5625000   0.0625000   0.5625000  )
        39           Si  tau(  39) = (   0.0625000   0.5625000   0.5625000  )
        40           Si  tau(  40) = (   0.5625000   0.5625000   0.5625000  )
        41           Si  tau(  41) = (   0.0625000   0.3125000   0.3125000  )
        42           Si  tau(  42) = (   0.5625000   0.3125000   0.3125000  )
        43           Si  tau(  43) = (   0.0625000   0.8125000   0.3125000  )
        44           Si  tau(  44) = (   0.5625000   0.8125000   0.3125000  )
        45           Si  tau(  45) = (   0.0625000   0.3125000   0.8125000  )
        46           Si  tau(  46) = (   0.5625000   0.3125000   0.8125000  )
        47           Si  tau(  47) = (   0.0625000   0.8125000   0.8125000  )
        48           Si  tau(  48) = (   0.5625000   0.8125000   0.8125000  )
        49           Si  tau(  49) = (   0.3125000   0.0625000   0.3125000  )
        50           Si  tau(  50) = (   0.8125000   0.0625000   0.3125000  )
        51           Si  tau(  51) = (   0.3125000   0.5625000   0.3125000  )
        52           Si  tau(  52) = (   0.8125000   0.5625000   0.3125000  )
        53           Si  tau(  53) = (   0.3125000   0.0625000   0.8125000  )
        54           Si  tau(  54) = (   0.8125000   0.0625000   0.8125000  )
        55           Si  tau(  55) = (   0.3125000   0.5625000   0.8125000  )
        56           Si  tau(  56) = (   0.8125000   0.5625000   0.8125000  )
        57           Si  tau(  57) = (   0.3125000   0.3125000   0.0625000  )
        58           Si  tau(  58) = (   0.8125000   0.3125000   0.0625000  )
        59           Si  tau(  59) = (   0.3125000   0.8125000   0.0625000  )
        60           Si  tau(  60) = (   0.8125000   0.8125000   0.0625000  )
        61           Si  tau(  61) = (   0.3125000   0.3125000   0.5625000  )
        62           Si  tau(  62) = (   0.8125000   0.3125000   0.5625000  )
        63           Si  tau(  63) = (   0.3125000   0.8125000   0.5625000  )
        64           Si  tau(  64) = (   0.8125000   0.8125000   0.5625000  )

     number of k points=     4  gaussian smearing, width (Ry)=  0.0100
                       cart. coord. in units 2pi/alat
        k(    1) = (   0.2500000   0.2500000   0.2500000), wk =   0.5000000
        k(    2) = (   0.2500000  -0.2500000  -0.2500000), wk =   0.5000000
        k(    3) = (   0.2500000   0.2500000  -0.2500000), wk =   0.5000000
        k(    4) = (   0.2500000  -0.2500000   0.2500000), wk =   0.5000000

     Dense  grid:   421349 G-vectors     FFT dimensions: (  96,  96,  96)

     Largest allocated arrays     est. size (Mb)     dimensions
        Kohn-Sham Wavefunctions         7.72 Mb     (    3285,  154)
        NL pseudopotentials            25.66 Mb     (    3285,  512)
        Each V/rho on FFT grid          0.84 Mb     (   55296)
        Each G-vector array             0.20 Mb     (   26336)
        G-vector shells                 0.01 Mb     (    1719)
     Largest temporary arrays     est. size (Mb)     dimensions
        Auxiliary wavefunctions        30.88 Mb     (    3285,  616)
        Each subspace H/S matrix        1.45 Mb     (     308,  308)
        Each <psi_i|beta_j> matrix      1.20 Mb     (     512,  154)
        Arrays for rho mixing           6.75 Mb     (   55296,    8)

     Check: negative/imaginary core charge=   -0.000001    0.000000

     Initial potential from superposition of free atoms

     starting charge  255.96421, renormalised to  256.00000
     Starting wfc are  256 randomized atomic wfcs
     Checking if some PAW data can be deallocated... 

     total cpu time spent up to now is       10.0 secs

     per-process dynamical memory:   114.7 Mb

     Self-consistent Calculation

     iteration #  1     ecut=    50.00 Ry     beta=0.70
     Davidson diagonalization with overlap
     ethr =  1.00E-02,  avg # of iterations =  3.0

     Threshold (ethr) on eigenvalues was too large:
     Diagonalizing with lowered threshold

     Davidson diagonalization with overlap
     ethr =  7.00E-04,  avg # of iterations =  1.0

     total cpu time spent up to now is       48.6 secs

     total energy              =   -2990.45689337 Ry
     Harris-Foulkes estimate   =   -2990.87679949 Ry
     estimated scf accuracy    <       1.77335505 Ry

     iteration #  2     ecut=    50.00 Ry     beta=0.70
     Davidson diagonalization with overlap
     ethr =  6.93E-04,  avg # of iterations =  1.0

     total cpu time spent up to now is       63.3 secs

     total energy              =   -2990.52356993 Ry
     Harris-Foulkes estimate   =   -2990.52744518 Ry
     estimated scf accuracy    <       0.07630830 Ry

     iteration #  3     ecut=    50.00 Ry     beta=0.70
     Davidson diagonalization with overlap
     ethr =  2.98E-05,  avg # of iterations = 11.0

     total cpu time spent up to now is       98.4 secs

     total energy              =   -2990.53055272 Ry
     Harris-Foulkes estimate   =   -2990.53134147 Ry
     estimated scf accuracy    <       0.00196260 Ry

     iteration #  4     ecut=    50.00 Ry     beta=0.70
     Davidson diagonalization with overlap
     ethr =  7.67E-07,  avg # of iterations =  6.8

     total cpu time spent up to now is      138.2 secs

     total energy              =   -2990.53034082 Ry
     Harris-Foulkes estimate   =   -2990.53270552 Ry
     estimated scf accuracy    <       0.00750893 Ry

     iteration #  5     ecut=    50.00 Ry     beta=0.70
     Davidson diagonalization with overlap
     ethr =  7.67E-07,  avg # of iterations =  4.8

     total cpu time spent up to now is      164.8 secs

     total energy              =   -2990.53145199 Ry
     Harris-Foulkes estimate   =   -2990.53156909 Ry
     estimated scf accuracy    <       0.00033385 Ry

     iteration #  6     ecut=    50.00 Ry     beta=0.70
     Davidson diagonalization with overlap
     ethr =  1.30E-07,  avg # of iterations =  2.0

     total cpu time spent up to now is      183.2 secs

     total energy              =   -2990.53151122 Ry
     Harris-Foulkes estimate   =   -2990.53152815 Ry
     estimated scf accuracy    <       0.00004789 Ry

     iteration #  7     ecut=    50.00 Ry     beta=0.70
     Davidson diagonalization with overlap
     ethr =  1.87E-08,  avg # of iterations =  3.0

     total cpu time spent up to now is      203.5 secs

     total energy              =   -2990.53152003 Ry
     Harris-Foulkes estimate   =   -2990.53152191 Ry
     estimated scf accuracy    <       0.00000436 Ry

     iteration #  8     ecut=    50.00 Ry     beta=0.70
     Davidson diagonalization with overlap
     ethr =  1.70E-09,  avg # of iterations =  3.0

     total cpu time spent up to now is      226.1 secs

     total energy              =   -2990.53152120 Ry
     Harris-Foulkes estimate   =   -2990.53152139 Ry
     estimated scf accuracy    <       0.00000042 Ry

     iteration #  9     ecut=    50.00 Ry     beta=0.70
     Davidson diagonalization with overlap
     ethr =  1.62E-10,  avg # of iterations =  3.0

     total cpu time spent up to now is      247.4 secs

     total energy              =   -2990.53152121 Ry
     Harris-Foulkes estimate   =   -2990.53152130 Ry
     estimated scf accuracy    <       0.00000012 Ry

     iteration # 10     ecut=    50.00 Ry     beta=0.70
     Davidson diagonalization with overlap
     ethr =  4.59E-11,  avg # of iterations =  3.0

     total cpu time spent up to now is      267.2 secs

     total energy              =   -2990.53152120 Ry
     Harris-Foulkes estimate   =   -2990.53152124 Ry
     estimated scf accuracy    <       0.00000006 Ry

     iteration # 11     ecut=    50.00 Ry     beta=0.70
     Davidson diagonalization with overlap
     ethr =  2.41E-11,  avg # of iterations =  2.0

     total cpu time spent up to now is      284.7 secs

     total energy              =   -2990.53152121 Ry
     Harris-Foulkes estimate   =   -2990.53152121 Ry
     estimated scf accuracy    <          2.0E-09 Ry

     iteration # 12     ecut=    50.00 Ry     beta=0.70
     Davidson diagonalization with overlap
     ethr =  7.95E-13,  avg # of iterations =  3.0

     total cpu time spent up to now is      309.3 secs

     End of self-consistent calculation

          k = 0.2500 0.2500 0.2500 ( 52563 PWs)   bands (ev):

    -5.6250  -5.0996  -5.0966  -5.0932  -4.5996  -4.5971  -4.5935  -4.1622
    -4.0664  -4.0630  -4.0595  -3.6579  -3.6518  -3.6471  -3.6452  -3.6420
    -3.6414  -3.4615  -3.4529  -3.4519  -2.9604  -2.9572  -2.9525  -2.5943
    -2.5883  -2.5864  -2.4306  -2.4250  -2.4212  -2.4189  -2.4157  -2.4148
    -0.8848  -0.8833  -0.8781  -0.8763  -0.8728  -0.8718  -0.7812  -0.7812
    -0.7766  -0.6668  -0.6604  -0.6537  -0.5858  -0.5796  -0.5758   0.1226
     0.2059   0.2067   0.2110   0.2128   0.2168   0.2205   1.0808   1.0820
     1.0860   1.4130   1.4208   1.4213   2.0234   2.0279   2.0291   2.0291
     2.0323   2.0333   2.0859   2.0908   2.0918   2.6364   2.6380   2.6399
     2.7392   2.7400   2.7423   2.7447   2.7492   2.7502   2.7940   2.8014
     2.8021   3.1025   3.1034   3.1070   3.1080   3.1100   3.1135   3.3707
     3.3735   3.3747   3.3818   3.3903   3.3903   3.7306   3.7316   3.7351
     3.7486   3.7546   3.7572   3.8387   3.8394   3.8438   4.1004   4.1113
     4.1124   4.1136   4.1150   4.1163   4.1529   4.1536   4.1589   4.4090
     4.4707   4.4733   4.4757   4.7139   4.7148   4.7206   4.7709   4.7737
     4.7778   4.9325   4.9425   5.2429   5.2442   5.2521   5.7207   5.7324
     6.9325   6.9403   6.9407   7.3748   7.3763   7.3813   7.6002   7.8610
     7.8617   7.8677   7.9873   7.9877   7.9958   8.1496   8.1511   8.1541
     8.1658   8.1711   8.1735   8.3966   8.3967   8.3982   8.4011   8.4037
     8.4072   8.4503

          k = 0.2500-0.2500-0.2500 ( 52563 PWs)   bands (ev):

    -5.6250  -5.0996  -5.0966  -5.0932  -4.5996  -4.5971  -4.5935  -4.1622
    -4.0664  -4.0630  -4.0595  -3.6579  -3.6518  -3.6471  -3.6452  -3.6420
    -3.6414  -3.4615  -3.4529  -3.4519  -2.9604  -2.9572  -2.9525  -2.5943
    -2.5883  -2.5864  -2.4306  -2.4250  -2.4212  -2.4189  -2.4157  -2.4148
    -0.8848  -0.8833  -0.8781  -0.8763  -0.8728  -0.8718  -0.7812  -0.7812
    -0.7766  -0.6668  -0.6604  -0.6537  -0.5858  -0.5796  -0.5758   0.1226
     0.2059   0.2067   0.2110   0.2128   0.2168   0.2205   1.0808   1.0820
     1.0860   1.4130   1.4208   1.4213   2.0234   2.0279   2.0291   2.0291
     2.0322   2.0333   2.0859   2.0908   2.0918   2.6364   2.6380   2.6399
     2.7392   2.7400   2.7423   2.7447   2.7492   2.7502   2.7940   2.8014
     2.8021   3.1025   3.1034   3.1070   3.1080   3.1100   3.1135   3.3707
     3.3735   3.3747   3.3818   3.3903   3.3903   3.7306   3.7316   3.7351
     3.7486   3.7546   3.7572   3.8387   3.8394   3.8438   4.1004   4.1113
     4.1124   4.1136   4.1150   4.1163   4.1529   4.1536   4.1589   4.4090
     4.4707   4.4733   4.4757   4.7139   4.7148   4.7206   4.7709   4.7737
     4.7778   4.9325   4.9425   5.2429   5.2442   5.2521   5.7207   5.7324
     6.9325   6.9403   6.9407   7.3748   7.3763   7.3813   7.6002   7.8610
     7.8617   7.8677   7.9873   7.9877   7.9958   8.1496   8.1511   8.1541
     8.1658   8.1711   8.1735   8.3966   8.3967   8.3982   8.4011   8.4037
     8.4072   8.4503

          k = 0.2500 0.2500-0.2500 ( 52563 PWs)   bands (ev):

    -5.6251  -5.0988  -5.0978  -5.0922  -4.5994  -4.5983  -4.5926  -4.1641
    -4.0666  -4.0650  -4.0598  -3.6510  -3.6490  -3.6488  -3.6475  -3.6455
    -3.6378  -3.4577  -3.4568  -3.4475  -2.9644  -2.9605  -2.9563  -2.5922
    -2.5896  -2.5850  -2.4256  -2.4237  -2.4230  -2.4215  -2.4200  -2.4088
    -0.8853  -0.8842  -0.8808  -0.8785  -0.8776  -0.8663  -0.7840  -0.7803
    -0.7792  -0.6702  -0.6644  -0.6579  -0.5785  -0.5737  -0.5631   0.1301
     0.2022   0.2038   0.2080   0.2105   0.2113   0.2197   1.0818   1.0856
     1.0959   1.4144   1.4166   1.4237   2.0242   2.0275   2.0283   2.0285
     2.0308   2.0347   2.0847   2.0855   2.0914   2.6404   2.6423   2.6433
     2.7370   2.7391   2.7411   2.7423   2.7451   2.7464   2.7897   2.7936
     2.7992   3.1025   3.1054   3.1064   3.1073   3.1084   3.1163   3.3676
     3.3704   3.3734   3.3825   3.3828   3.3897   3.7334   3.7347   3.7410
     3.7554   3.7601   3.7640   3.8345   3.8384   3.8423   4.1116   4.1130
     4.1139   4.1163   4.1189   4.1276   4.1475   4.1522   4.1579   4.4170
     4.4655   4.4685   4.4724   4.7081   4.7132   4.7159   4.7786   4.7811
     4.7922   4.9298   4.9401   5.2349   5.2416   5.2461   5.7159   5.7273
     6.9317   6.9319   6.9400   7.3701   7.3758   7.3820   7.5972   7.8550
     7.8596   7.8660   7.9875   7.9958   7.9959   8.1465   8.1518   8.1543
     8.1657   8.1672   8.1723   8.3969   8.4015   8.4019   8.4036   8.4083
     8.4125   8.4456

          k = 0.2500-0.2500 0.2500 ( 52563 PWs)   bands (ev):

    -5.6251  -5.0988  -5.0978  -5.0922  -4.5994  -4.5983  -4.5926  -4.1641
    -4.0666  -4.0650  -4.0598  -3.6510  -3.6490  -3.6488  -3.6475  -3.6455
    -3.6378  -3.4577  -3.4568  -3.4475  -2.9644  -2.9605  -2.9563  -2.5922
    -2.5896  -2.5850  -2.4256  -2.4237  -2.4230  -2.4215  -2.4200  -2.4088
    -0.8853  -0.8842  -0.8808  -0.8785  -0.8776  -0.8663  -0.7840  -0.7803
    -0.7792  -0.6702  -0.6644  -0.6579  -0.5785  -0.5737  -0.5631   0.1301
     0.2022   0.2038   0.2079   0.2105   0.2113   0.2197   1.0818   1.0856
     1.0959   1.4144   1.4166   1.4237   2.0242   2.0275   2.0283   2.0285
     2.0308   2.0347   2.0847   2.0855   2.0914   2.6404   2.6423   2.6433
     2.7370   2.7391   2.7411   2.7422   2.7451   2.7464   2.7897   2.7936
     2.7992   3.1025   3.1054   3.1064   3.1072   3.1084   3.1163   3.3676
     3.3704   3.3734   3.3825   3.3828   3.3897   3.7334   3.7347   3.7410
     3.7554   3.7601   3.7640   3.8345   3.8384   3.8423   4.1116   4.1130
     4.1139   4.1163   4.1189   4.1276   4.1475   4.1522   4.1579   4.4170
     4.4655   4.4685   4.4724   4.7081   4.7132   4.7159   4.7786   4.7811
     4.7922   4.9298   4.9401   5.2349   5.2416   5.2461   5.7159   5.7273
     6.9317   6.9319   6.9400   7.3701   7.3758   7.3820   7.5972   7.8550
     7.8596   7.8660   7.9875   7.9958   7.9959   8.1465   8.1518   8.1543
     8.1657   8.1672   8.1723   8.3969   8.4015   8.4019   8.4036   8.4083
     8.4125   8.4456

     the Fermi energy is     6.3274 ev

!    total energy              =   -2990.53152121 Ry
     Harris-Foulkes estimate   =   -2990.53152121 Ry
     estimated scf accuracy    <          9.8E-10 Ry

     total all-electron energy =    -37124.667074 Ry

     The total energy is the sum of the following terms:

     one-electron contribution =     178.60608586 Ry
     hartree contribution      =      35.70165028 Ry
     xc contribution           =    -391.44198777 Ry
     ewald contribution        =    -534.00596555 Ry
     one-center paw contrib.   =   -2279.39130403 Ry
     smearing contrib. (-TS)   =       0.00000000 Ry

     convergence has been achieved in  12 iterations

     Forces acting on atoms (Ry/au):

     atom    1 type  1   force =    -0.01640948   -0.00010986    0.00010997
     atom    2 type  1   force =     0.00002340   -0.00000900    0.00000887
     atom    3 type  1   force =    -0.00047386   -0.00011392   -0.00011360
     atom    4 type  1   force =    -0.00000727   -0.00000930   -0.00001026
     atom    5 type  1   force =    -0.00047400    0.00011424    0.00011299
     atom    6 type  1   force =    -0.00000769    0.00000926    0.00000924
     atom    7 type  1   force =    -0.00099828    0.00010945   -0.00010969
     atom    8 type  1   force =     0.00002496    0.00000939   -0.00000928
     atom    9 type  1   force =    -0.00047510    0.00011454    0.00011386
     atom   10 type  1   force =    -0.00000645    0.00000849    0.00000964
     atom   11 type  1   force =    -0.01640882    0.00011030   -0.00010986
     atom   12 type  1   force =     0.00002308    0.00000864   -0.00000848
     atom   13 type  1   force =    -0.00099894   -0.00010996    0.00010937
     atom   14 type  1   force =     0.00002576   -0.00000872    0.00000908
     atom   15 type  1   force =    -0.00047263   -0.00011501   -0.00011375
     atom   16 type  1   force =    -0.00000855   -0.00000890   -0.00000934
     atom   17 type  1   force =     0.00046190    0.00011627    0.00011780
     atom   18 type  1   force =     0.00047741   -0.00034608   -0.00034572
     atom   19 type  1   force =     0.00027391   -0.00023526    0.00003296
     atom   20 type  1   force =     0.00028121    0.00022343    0.00019062
     atom   21 type  1   force =     0.00027534    0.00003191   -0.00023675
     atom   22 type  1   force =     0.00028075    0.00019285    0.00022425
     atom   23 type  1   force =     0.00008625    0.00008653    0.00008709
     atom   24 type  1   force =     0.00008521   -0.00006703   -0.00006598
     atom   25 type  1   force =     0.00027462    0.00023739   -0.00003366
     atom   26 type  1   force =     0.00028147   -0.00022401   -0.00019084
     atom   27 type  1   force =     0.00046115   -0.00011708   -0.00011722
     atom   28 type  1   force =     0.00047691    0.00034564    0.00034676
     atom   29 type  1   force =     0.00008566   -0.00008681   -0.00008597
     atom   30 type  1   force =     0.00008497    0.00006618    0.00006675
     atom   31 type  1   force =     0.00027492   -0.00003262    0.00023666
     atom   32 type  1   force =     0.00028099   -0.00019083   -0.00022539
     atom   33 type  1   force =     0.00000526    0.00000582    0.00000554
     atom   34 type  1   force =     0.00019523   -0.00001148   -0.00002294
     atom   35 type  1   force =     0.00001392   -0.00001189   -0.00001162
     atom   36 type  1   force =     0.00386867   -0.00265295   -0.00266743
     atom   37 type  1   force =     0.00000529   -0.00000556   -0.00000524
     atom   38 type  1   force =     0.00019515    0.00001042    0.00002262
     atom   39 type  1   force =     0.00001358    0.00001136    0.00001157
     atom   40 type  1   force =     0.00386876    0.00265355    0.00266791
     atom   41 type  1   force =     0.00001506   -0.00001244   -0.00001128
     atom   42 type  1   force =     0.00386827   -0.00266594   -0.00265355
     atom   43 type  1   force =     0.00001318    0.00001292    0.00001224
     atom   44 type  1   force =     0.00386813    0.00266646    0.00265284
     atom   45 type  1   force =     0.00000522    0.00000460    0.00000511
     atom   46 type  1   force =     0.00019490   -0.00002103   -0.00001061
     atom   47 type  1   force =     0.00000512   -0.00000410   -0.00000610
     atom   48 type  1   force =     0.00019644    0.00002151    0.00001134
     atom   49 type  1   force =    -0.00011832    0.00000105   -0.00000021
     atom   50 type  1   force =     0.00005746   -0.00000079    0.00000022
     atom   51 type  1   force =     0.00761689   -0.00000067   -0.00000010
     atom   52 type  1   force =    -0.00002452   -0.00000057   -0.00000010
     atom   53 type  1   force =     0.00050576   -0.00000103   -0.00000031
     atom   54 type  1   force =    -0.00004411   -0.00000083    0.00000024
     atom   55 type  1   force =    -0.00011603   -0.00000114   -0.00000009
     atom   56 type  1   force =     0.00005454    0.00000098   -0.00000047
     atom   57 type  1   force =    -0.00011704    0.00001409    0.00001493
     atom   58 type  1   force =     0.00005639    0.00000232    0.00000232
     atom   59 type  1   force =     0.00406386   -0.00245430    0.00245420
     atom   60 type  1   force =    -0.00003462   -0.00000687    0.00000635
     atom   61 type  1   force =     0.00406240    0.00245480   -0.00245488
     atom   62 type  1   force =    -0.00003336    0.00000759   -0.00000715
     atom   63 type  1   force =    -0.00011705   -0.00001371   -0.00001392
     atom   64 type  1   force =     0.00005675   -0.00000228   -0.00000154

     Total force =     0.027864     Total SCF correction =     0.000047

     Writing output data file pwscf.save
 
     init_run     :      9.60s CPU      9.82s WALL (       1 calls)
     electrons    :    291.20s CPU    299.66s WALL (       1 calls)
     forces       :      4.96s CPU      5.11s WALL (       1 calls)

     Called by init_run:
     wfcinit      :      8.86s CPU      9.00s WALL (       1 calls)
     potinit      :      0.28s CPU      0.29s WALL (       1 calls)

     Called by electrons:
     c_bands      :    260.46s CPU    268.12s WALL (      13 calls)
     sum_band     :     25.66s CPU     26.04s WALL (      13 calls)
     v_of_rho     :      0.91s CPU      0.92s WALL (      13 calls)
     newd         :      1.70s CPU      1.75s WALL (      13 calls)
     PAW_pot      :      2.19s CPU      2.20s WALL (      13 calls)
     mix_rho      :      0.51s CPU      0.53s WALL (      13 calls)

     Called by c_bands:
     init_us_2    :      5.07s CPU      5.14s WALL (     112 calls)
     cegterg      :    253.68s CPU    260.98s WALL (      52 calls)

     Called by sum_band:
     sum_band:bec :      0.04s CPU      0.04s WALL (      52 calls)
     addusdens    :      1.75s CPU      1.97s WALL (      13 calls)

     Called by *egterg:
     h_psi        :    116.51s CPU    117.01s WALL (     242 calls)
     s_psi        :     29.54s CPU     29.57s WALL (     242 calls)
     g_psi        :      1.13s CPU      1.13s WALL (     186 calls)
     cdiaghg      :     36.83s CPU     36.95s WALL (     234 calls)

     Called by h_psi:
     add_vuspsi   :     30.26s CPU     30.34s WALL (     242 calls)

     General routines
     calbec       :     46.90s CPU     47.09s WALL (     310 calls)
     fft          :      0.45s CPU      0.45s WALL (     182 calls)
     fftw         :     54.56s CPU     54.95s WALL (   53152 calls)
     davcio       :      0.00s CPU      0.07s WALL (       4 calls)
 
     Parallel routines
     fft_scatter  :     16.85s CPU     16.15s WALL (   53334 calls)
 
     PWSCF        :  5m 6.13s CPU     5m38.35s WALL

 
   This run was terminated on:  13:39:49   3Feb2016            

=------------------------------------------------------------------------------=
   JOB DONE.
=------------------------------------------------------------------------------=
