<?xml version="1.0" encoding="ISO-8859-1"?>
<modeling>
 <generator>
  <i name="program" type="string">vasp </i>
  <i name="version" type="string">5.4.1  </i>
  <i name="subversion" type="string">05Feb16 (build Mar 26 2016 11:58:25) complex                          parallel </i>
  <i name="platform" type="string">IFC91_ompi </i>
  <i name="date" type="string">2017 03 12 </i>
  <i name="time" type="string">12:19:26 </i>
 </generator>
 <incar>
  <i type="string" name="PREC">accurate</i>
  <i type="int" name="IALGO">    38</i>
  <i type="logical" name="ADDGRID"> T  </i>
  <i type="int" name="NELMIN">     5</i>
  <i type="int" name="IBRION">    -1</i>
  <i name="EDIFF">      0.00000001</i>
  <i name="ENCUT">    300.00000000</i>
  <i type="logical" name="LREAL"> F  </i>
  <i type="int" name="ISMEAR">     0</i>
  <i name="SIGMA">      0.05000000</i>
  <i type="logical" name="LWAVE"> F  </i>
  <i type="logical" name="LCHARG"> F  </i>
  <v type="int" name="KPOINT_BSE">    -1     0     0     0</v>
 </incar>
 <kpoints>
  <generation param="Monkhorst-Pack">
   <v type="int" name="divisions">       2        2        2 </v>
   <v name="usershift">      0.00000000       0.00000000       0.00000000 </v>
   <v name="genvec1">      0.50000000       0.00000000       0.00000000 </v>
   <v name="genvec2">      0.00000000       0.50000000       0.00000000 </v>
   <v name="genvec3">      0.00000000       0.00000000       0.50000000 </v>
   <v name="shift">      0.50000000       0.50000000       0.50000000 </v>
  </generation>
  <varray name="kpointlist" >
   <v>       0.25000000       0.25000000       0.25000000 </v>
   <v>      -0.25000000       0.25000000       0.25000000 </v>
   <v>       0.25000000      -0.25000000       0.25000000 </v>
   <v>      -0.25000000      -0.25000000       0.25000000 </v>
  </varray>
  <varray name="weights" >
   <v>       0.25000000 </v>
   <v>       0.25000000 </v>
   <v>       0.25000000 </v>
   <v>       0.25000000 </v>
  </varray>
 </kpoints>
 <parameters>
  <separator name="general" >
   <i type="string" name="SYSTEM">unknown system</i>
   <i type="logical" name="LCOMPAT"> F  </i>
  </separator>
  <separator name="electronic" >
   <i type="string" name="PREC">accura</i>
   <i name="ENMAX">    300.00000000</i>
   <i name="ENAUG">    322.06900000</i>
   <i name="EDIFF">      0.00000001</i>
   <i type="int" name="IALGO">    38</i>
   <i type="int" name="IWAVPR">    10</i>
   <i type="int" name="NBANDS">   164</i>
   <i name="NELECT">    256.00000000</i>
   <i type="int" name="TURBO">     0</i>
   <i type="int" name="IRESTART">     0</i>
   <i type="int" name="NREBOOT">     0</i>
   <i type="int" name="NMIN">     0</i>
   <i name="EREF">      0.00000000</i>
   <separator name="electronic smearing" >
    <i type="int" name="ISMEAR">     0</i>
    <i name="SIGMA">      0.05000000</i>
    <i name="KSPACING">      0.50000000</i>
    <i type="logical" name="KGAMMA"> T  </i>
   </separator>
   <separator name="electronic projectors" >
    <i type="logical" name="LREAL"> F  </i>
    <v name="ROPT">      0.00000000</v>
    <i type="int" name="LMAXPAW">  -100</i>
    <i type="int" name="LMAXMIX">     2</i>
    <i type="logical" name="NLSPLINE"> F  </i>
   </separator>
   <separator name="electronic startup" >
    <i type="int" name="ISTART">     0</i>
    <i type="int" name="ICHARG">     2</i>
    <i type="int" name="INIWAV">     1</i>
   </separator>
   <separator name="electronic spin" >
    <i type="int" name="ISPIN">     1</i>
    <i type="logical" name="LNONCOLLINEAR"> F  </i>
    <v name="MAGMOM">      1.00000000      1.00000000      1.00000000      1.00000000      1.00000000      1.00000000      1.00000000      1.00000000      1.00000000      1.00000000      1.00000000      1.00000000      1.00000000      1.00000000      1.00000000      1.00000000      1.00000000      1.00000000      1.00000000      1.00000000
      1.00000000      1.00000000      1.00000000      1.00000000      1.00000000      1.00000000      1.00000000      1.00000000      1.00000000      1.00000000      1.00000000      1.00000000      1.00000000      1.00000000      1.00000000      1.00000000      1.00000000      1.00000000      1.00000000      1.00000000
      1.00000000      1.00000000      1.00000000      1.00000000      1.00000000      1.00000000      1.00000000      1.00000000      1.00000000      1.00000000      1.00000000      1.00000000      1.00000000      1.00000000      1.00000000      1.00000000      1.00000000      1.00000000      1.00000000      1.00000000
      1.00000000      1.00000000      1.00000000      1.00000000</v>
    <i name="NUPDOWN">     -1.00000000</i>
    <i type="logical" name="LSORBIT"> F  </i>
    <v name="SAXIS">      0.00000000      0.00000000      1.00000000</v>
    <i type="logical" name="LSPIRAL"> F  </i>
    <v name="QSPIRAL">      0.00000000      0.00000000      0.00000000</v>
    <i type="logical" name="LZEROZ"> F  </i>
   </separator>
   <separator name="electronic exchange-correlation" >
    <i type="logical" name="LASPH"> F  </i>
    <i type="logical" name="LMETAGGA"> F  </i>
   </separator>
   <separator name="electronic convergence" >
    <i type="int" name="NELM">    60</i>
    <i type="int" name="NELMDL">    -5</i>
    <i type="int" name="NELMIN">     5</i>
    <i name="ENINI">    300.00000000</i>
    <separator name="electronic convergence detail" >
     <i type="logical" name="LDIAG"> T  </i>
     <i type="logical" name="LSUBROT"> F  </i>
     <i name="WEIMIN">      0.00000000</i>
     <i name="EBREAK">      0.00000000</i>
     <i name="DEPER">      0.30000000</i>
     <i type="int" name="NRMM">     4</i>
     <i name="TIME">      0.40000000</i>
    </separator>
   </separator>
   <separator name="electronic mixer" >
    <i name="AMIX">      0.40000000</i>
    <i name="BMIX">      1.00000000</i>
    <i name="AMIN">      0.10000000</i>
    <i name="AMIX_MAG">      1.60000000</i>
    <i name="BMIX_MAG">      1.00000000</i>
    <separator name="electronic mixer details" >
     <i type="int" name="IMIX">     4</i>
     <i type="logical" name="MIXFIRST"> F  </i>
     <i type="int" name="MAXMIX">   -45</i>
     <i name="WC">    100.00000000</i>
     <i type="int" name="INIMIX">     1</i>
     <i type="int" name="MIXPRE">     1</i>
     <i type="int" name="MREMOVE">     5</i>
    </separator>
   </separator>
   <separator name="electronic dipolcorrection" >
    <i type="logical" name="LDIPOL"> F  </i>
    <i type="logical" name="LMONO"> F  </i>
    <i type="int" name="IDIPOL">     0</i>
    <i name="EPSILON">      1.00000000</i>
    <v name="DIPOL">   -100.00000000   -100.00000000   -100.00000000</v>
    <i name="EFIELD">      0.00000000</i>
   </separator>
  </separator>
  <separator name="grids" >
   <i type="int" name="NGX">    64</i>
   <i type="int" name="NGY">    64</i>
   <i type="int" name="NGZ">    64</i>
   <i type="int" name="NGXF">   128</i>
   <i type="int" name="NGYF">   128</i>
   <i type="int" name="NGZF">   128</i>
   <i type="logical" name="ADDGRID"> T  </i>
  </separator>
  <separator name="ionic" >
   <i type="int" name="NSW">     0</i>
   <i type="int" name="IBRION">    -1</i>
   <i type="int" name="ISIF">     2</i>
   <i name="PSTRESS">      0.00000000</i>
   <i name="EDIFFG">      0.00000010</i>
   <i type="int" name="NFREE">     0</i>
   <i name="POTIM">      0.50000000</i>
   <i name="SMASS">     -3.00000000</i>
   <i name="SCALEE">      1.00000000</i>
  </separator>
  <separator name="ionic md" >
   <i name="TEBEG">      0.00010000</i>
   <i name="TEEND">      0.00010000</i>
   <i type="int" name="NBLOCK">     1</i>
   <i type="int" name="KBLOCK">     1</i>
   <i type="int" name="NPACO">   256</i>
   <i name="APACO">     16.00000000</i>
  </separator>
  <separator name="symmetry" >
   <i type="int" name="ISYM">     2</i>
   <i name="SYMPREC">      0.00001000</i>
  </separator>
  <separator name="dos" >
   <i type="logical" name="LORBIT"> F  </i>
   <v name="RWIGS">     -1.00000000</v>
   <i type="int" name="NEDOS">   301</i>
   <i name="EMIN">     10.00000000</i>
   <i name="EMAX">    -10.00000000</i>
   <i name="EFERMI">      0.00000000</i>
  </separator>
  <separator name="writing" >
   <i type="int" name="NWRITE">     2</i>
   <i type="logical" name="LWAVE"> F  </i>
   <i type="logical" name="LCHARG"> F  </i>
   <i type="logical" name="LPARD"> F  </i>
   <i type="logical" name="LVTOT"> F  </i>
   <i type="logical" name="LVHAR"> F  </i>
   <i type="logical" name="LELF"> F  </i>
   <i type="logical" name="LOPTICS"> F  </i>
   <v name="STM">      0.00000000      0.00000000      0.00000000      0.00000000      0.00000000      0.00000000      0.00000000</v>
  </separator>
  <separator name="performance" >
   <i type="int" name="NPAR">     4</i>
   <i type="int" name="NSIM">     4</i>
   <i type="int" name="NBLK">    -1</i>
   <i type="logical" name="LPLANE"> T  </i>
   <i type="logical" name="LSCALAPACK"> T  </i>
   <i type="logical" name="LSCAAWARE"> F  </i>
   <i type="logical" name="LSCALU"> F  </i>
   <i type="logical" name="LASYNC"> F  </i>
   <i type="logical" name="LORBITALREAL"> F  </i>
  </separator>
  <separator name="miscellaneous" >
   <i type="int" name="IDIOT">     3</i>
   <i type="logical" name="LMUSIC"> F  </i>
   <v name="POMASS">     28.08500000</v>
   <v name="DARWINR">      0.00000000</v>
   <v name="DARWINV">      1.00000000</v>
   <i type="logical" name="LCORR"> T  </i>
  </separator>
  <i type="logical" name="GGA_COMPAT"> T  </i>
  <i type="logical" name="LBERRY"> F  </i>
  <i type="int" name="ICORELEVEL">     0</i>
  <i type="logical" name="LDAU"> F  </i>
  <i type="int" name="I_CONSTRAINED_M">     0</i>
  <separator name="electronic exchange-correlation" >
   <i type="string" name="GGA">--</i>
   <i type="int" name="VOSKOWN">     0</i>
   <i type="logical" name="LHFCALC"> F  </i>
   <i type="string" name="PRECFOCK"></i>
   <i type="logical" name="LSYMGRAD"> F  </i>
   <i type="logical" name="LHFONE"> F  </i>
   <i type="logical" name="LRHFCALC"> F  </i>
   <i type="logical" name="LTHOMAS"> F  </i>
   <i type="logical" name="LMODELHF"> F  </i>
   <i name="ENCUT4O">     -1.00000000</i>
   <i type="int" name="EXXOEP">     0</i>
   <i type="int" name="FOURORBIT">     0</i>
   <i name="AEXX">      0.00000000</i>
   <i name="HFALPHA">      0.00000000</i>
   <i name="MCALPHA">      0.00000000</i>
   <i name="ALDAX">      1.00000000</i>
   <i name="AGGAX">      1.00000000</i>
   <i name="ALDAC">      1.00000000</i>
   <i name="AGGAC">      1.00000000</i>
   <i type="int" name="NKREDX">     1</i>
   <i type="int" name="NKREDY">     1</i>
   <i type="int" name="NKREDZ">     1</i>
   <i type="logical" name="SHIFTRED"> F  </i>
   <i type="logical" name="ODDONLY"> F  </i>
   <i type="logical" name="EVENONLY"> F  </i>
   <i type="int" name="LMAXFOCK">     0</i>
   <i type="int" name="NMAXFOCKAE">     0</i>
   <i type="logical" name="LFOCKAEDFT"> F  </i>
   <i name="HFSCREEN">      0.00000000</i>
   <i name="HFSCREENC">      0.00000000</i>
   <i type="int" name="NBANDSGWLOW">     0</i>
  </separator>
  <separator name="vdW DFT" >
   <i type="logical" name="LUSE_VDW"> F  </i>
   <i name="Zab_VDW">     -0.84910000</i>
   <i name="PARAM1">      0.12340000</i>
   <i name="PARAM2">      1.00000000</i>
   <i name="PARAM3">      0.00000000</i>
  </separator>
  <separator name="model GW" >
   <i type="int" name="MODEL_GW">     0</i>
   <i name="MODEL_EPS0">     12.24990743</i>
   <i name="MODEL_ALPHA">      1.00000000</i>
  </separator>
  <separator name="linear response parameters" >
   <i type="logical" name="LEPSILON"> F  </i>
   <i type="logical" name="LRPA"> F  </i>
   <i type="logical" name="LNABLA"> F  </i>
   <i type="logical" name="LVEL"> F  </i>
   <i type="int" name="KINTER">     0</i>
   <i name="CSHIFT">      0.10000000</i>
   <i name="OMEGAMAX">     -1.00000000</i>
   <i name="DEG_THRESHOLD">      0.00200000</i>
  </separator>
  <separator name="orbital magnetization" >
   <i type="logical" name="NUCIND"> F  </i>
   <v name="MAGPOS">      0.00000000      0.00000000      0.00000000</v>
   <i type="logical" name="LNICSALL"> T  </i>
   <i type="logical" name="ORBITALMAG"> F  </i>
   <i type="logical" name="LMAGBLOCH"> F  </i>
   <i type="logical" name="LCHIMAG"> F  </i>
   <i type="logical" name="LGAUGE"> T  </i>
   <i type="int" name="MAGATOM">     0</i>
   <v name="MAGDIPOL">      0.00000000      0.00000000      0.00000000</v>
   <v name="AVECCONST">      0.00000000      0.00000000      0.00000000</v>
  </separator>
  <separator name="response functions" >
   <i type="logical" name="LADDER"> F  </i>
   <i type="logical" name="LFXC"> F  </i>
   <i type="logical" name="LHARTREE"> T  </i>
   <i type="int" name="IBSE">     0</i>
   <v type="int" name="KPOINT">    -1     0     0     0</v>
   <i type="logical" name="LTCTE"> F  </i>
   <i type="logical" name="LTETE"> F  </i>
   <i type="logical" name="LTRIPLET"> F  </i>
   <i type="logical" name="LFXCEPS"> F  </i>
   <i type="logical" name="LFXHEG"> F  </i>
   <i type="int" name="NATURALO">     0</i>
   <i type="logical" name="L2ORDER"> F  </i>
   <i type="logical" name="LUSEW"> F  </i>
   <i name="ENCUTGW">     -2.00000000</i>
   <i name="ENCUTGWSOFT">     -2.00000000</i>
   <i name="ENCUTLF">     -1.00000000</i>
   <i type="int" name="LMAXMP2">    -1</i>
   <i name="SCISSOR">      0.00000000</i>
   <i type="int" name="NOMEGA">     0</i>
   <i type="int" name="NOMEGAR">     0</i>
   <i type="int" name="NBANDSGW">    -1</i>
   <i type="int" name="NBANDSO">    -1</i>
   <i type="int" name="NBANDSV">    -1</i>
   <i type="int" name="NELM">     1</i>
   <i type="int" name="NELMHF">     1</i>
   <i type="int" name="DIM">     3</i>
   <i type="int" name="ANTIRES">     0</i>
   <i name="OMEGAMAX">    -30.00000000</i>
   <i name="OMEGAMIN">    -30.00000000</i>
   <i name="OMEGATL">   -200.00000000</i>
   <i type="int" name="OMEGAGRID">     0</i>
   <i name="CSHIFT">     -0.10000000</i>
   <i type="logical" name="SELFENERGY"> F  </i>
   <i type="logical" name="LSPECTRAL"> F  </i>
   <i type="logical" name="LSPECTRALGW"> F  </i>
   <i type="logical" name="LSINGLES"> F  </i>
   <i type="logical" name="LFERMIGW"> F  </i>
   <i type="logical" name="ODDONLYGW"> F  </i>
   <i type="logical" name="EVENONLYGW"> F  </i>
   <i type="int" name="NKREDLFX">     1</i>
   <i type="int" name="NKREDLFY">     1</i>
   <i type="int" name="NKREDLFZ">     1</i>
   <i type="int" name="MAXMEM">  1800</i>
   <i type="int" name="TELESCOPE">     0</i>
   <i type="int" name="TAUPAR">     1</i>
   <i type="int" name="OMEGAPAR">    -1</i>
   <i name="LAMBDA">      1.00000000</i>
  </separator>
  <separator name="External order field" >
   <i name="OFIELD_KAPPA">      0.00000000</i>
   <v name="OFIELD_K">      0.00000000      0.00000000      0.00000000</v>
   <i name="OFIELD_Q6_NEAR">      0.00000000</i>
   <i name="OFIELD_Q6_FAR">      0.00000000</i>
   <i name="OFIELD_A">      0.00000000</i>
  </separator>
 </parameters>
 <atominfo>
  <atoms>      64 </atoms>
  <types>       1 </types>
  <array name="atoms" >
   <dimension dim="1">ion</dimension>
   <field type="string">element</field>
   <field type="int">atomtype</field>
   <set>
    <rc><c>Si</c><c>   1</c></rc>
    <rc><c>Si</c><c>   1</c></rc>
    <rc><c>Si</c><c>   1</c></rc>
    <rc><c>Si</c><c>   1</c></rc>
    <rc><c>Si</c><c>   1</c></rc>
    <rc><c>Si</c><c>   1</c></rc>
    <rc><c>Si</c><c>   1</c></rc>
    <rc><c>Si</c><c>   1</c></rc>
    <rc><c>Si</c><c>   1</c></rc>
    <rc><c>Si</c><c>   1</c></rc>
    <rc><c>Si</c><c>   1</c></rc>
    <rc><c>Si</c><c>   1</c></rc>
    <rc><c>Si</c><c>   1</c></rc>
    <rc><c>Si</c><c>   1</c></rc>
    <rc><c>Si</c><c>   1</c></rc>
    <rc><c>Si</c><c>   1</c></rc>
    <rc><c>Si</c><c>   1</c></rc>
    <rc><c>Si</c><c>   1</c></rc>
    <rc><c>Si</c><c>   1</c></rc>
    <rc><c>Si</c><c>   1</c></rc>
    <rc><c>Si</c><c>   1</c></rc>
    <rc><c>Si</c><c>   1</c></rc>
    <rc><c>Si</c><c>   1</c></rc>
    <rc><c>Si</c><c>   1</c></rc>
    <rc><c>Si</c><c>   1</c></rc>
    <rc><c>Si</c><c>   1</c></rc>
    <rc><c>Si</c><c>   1</c></rc>
    <rc><c>Si</c><c>   1</c></rc>
    <rc><c>Si</c><c>   1</c></rc>
    <rc><c>Si</c><c>   1</c></rc>
    <rc><c>Si</c><c>   1</c></rc>
    <rc><c>Si</c><c>   1</c></rc>
    <rc><c>Si</c><c>   1</c></rc>
    <rc><c>Si</c><c>   1</c></rc>
    <rc><c>Si</c><c>   1</c></rc>
    <rc><c>Si</c><c>   1</c></rc>
    <rc><c>Si</c><c>   1</c></rc>
    <rc><c>Si</c><c>   1</c></rc>
    <rc><c>Si</c><c>   1</c></rc>
    <rc><c>Si</c><c>   1</c></rc>
    <rc><c>Si</c><c>   1</c></rc>
    <rc><c>Si</c><c>   1</c></rc>
    <rc><c>Si</c><c>   1</c></rc>
    <rc><c>Si</c><c>   1</c></rc>
    <rc><c>Si</c><c>   1</c></rc>
    <rc><c>Si</c><c>   1</c></rc>
    <rc><c>Si</c><c>   1</c></rc>
    <rc><c>Si</c><c>   1</c></rc>
    <rc><c>Si</c><c>   1</c></rc>
    <rc><c>Si</c><c>   1</c></rc>
    <rc><c>Si</c><c>   1</c></rc>
    <rc><c>Si</c><c>   1</c></rc>
    <rc><c>Si</c><c>   1</c></rc>
    <rc><c>Si</c><c>   1</c></rc>
    <rc><c>Si</c><c>   1</c></rc>
    <rc><c>Si</c><c>   1</c></rc>
    <rc><c>Si</c><c>   1</c></rc>
    <rc><c>Si</c><c>   1</c></rc>
    <rc><c>Si</c><c>   1</c></rc>
    <rc><c>Si</c><c>   1</c></rc>
    <rc><c>Si</c><c>   1</c></rc>
    <rc><c>Si</c><c>   1</c></rc>
    <rc><c>Si</c><c>   1</c></rc>
    <rc><c>Si</c><c>   1</c></rc>
   </set>
  </array>
  <array name="atomtypes" >
   <dimension dim="1">type</dimension>
   <field type="int">atomspertype</field>
   <field type="string">element</field>
   <field>mass</field>
   <field>valence</field>
   <field type="string">pseudopotential</field>
   <set>
    <rc><c>  64</c><c>Si</c><c>     28.08500000</c><c>      4.00000000</c><c>  PAW_PBE Si 05Jan2001                  </c></rc>
   </set>
  </array>
 </atominfo>
 <structure name="initialpos" >
  <crystal>
   <varray name="basis" >
    <v>      10.93252578       0.00000000       0.00000000 </v>
    <v>       0.00000000      10.93252578       0.00000000 </v>
    <v>       0.00000000       0.00000000      10.93252578 </v>
   </varray>
   <i name="volume">   1306.65679237 </i>
   <varray name="rec_basis" >
    <v>       0.09147017       0.00000000       0.00000000 </v>
    <v>       0.00000000       0.09147017       0.00000000 </v>
    <v>       0.00000000       0.00000000       0.09147017 </v>
   </varray>
  </crystal>
  <varray name="positions" >
   <v>       0.44024411       0.43750000       0.43750000 </v>
   <v>       0.93750000       0.43750000       0.43750000 </v>
   <v>       0.43750000       0.93750000       0.43750000 </v>
   <v>       0.93750000       0.93750000       0.43750000 </v>
   <v>       0.43750000       0.43750000       0.93750000 </v>
   <v>       0.93750000       0.43750000       0.93750000 </v>
   <v>       0.43750000       0.93750000       0.93750000 </v>
   <v>       0.93750000       0.93750000       0.93750000 </v>
   <v>       0.43750000       0.18750000       0.18750000 </v>
   <v>       0.93750000       0.18750000       0.18750000 </v>
   <v>       0.43750000       0.68750000       0.18750000 </v>
   <v>       0.93750000       0.68750000       0.18750000 </v>
   <v>       0.43750000       0.18750000       0.68750000 </v>
   <v>       0.93750000       0.18750000       0.68750000 </v>
   <v>       0.43750000       0.68750000       0.68750000 </v>
   <v>       0.93750000       0.68750000       0.68750000 </v>
   <v>       0.18750000       0.43750000       0.18750000 </v>
   <v>       0.68750000       0.43750000       0.18750000 </v>
   <v>       0.18750000       0.93750000       0.18750000 </v>
   <v>       0.68750000       0.93750000       0.18750000 </v>
   <v>       0.18750000       0.43750000       0.68750000 </v>
   <v>       0.68750000       0.43750000       0.68750000 </v>
   <v>       0.18750000       0.93750000       0.68750000 </v>
   <v>       0.68750000       0.93750000       0.68750000 </v>
   <v>       0.18750000       0.18750000       0.43750000 </v>
   <v>       0.68750000       0.18750000       0.43750000 </v>
   <v>       0.18750000       0.68750000       0.43750000 </v>
   <v>       0.68750000       0.68750000       0.43750000 </v>
   <v>       0.18750000       0.18750000       0.93750000 </v>
   <v>       0.68750000       0.18750000       0.93750000 </v>
   <v>       0.18750000       0.68750000       0.93750000 </v>
   <v>       0.68750000       0.68750000       0.93750000 </v>
   <v>       0.06250000       0.06250000       0.06250000 </v>
   <v>       0.56250000       0.06250000       0.06250000 </v>
   <v>       0.06250000       0.56250000       0.06250000 </v>
   <v>       0.56250000       0.56250000       0.06250000 </v>
   <v>       0.06250000       0.06250000       0.56250000 </v>
   <v>       0.56250000       0.06250000       0.56250000 </v>
   <v>       0.06250000       0.56250000       0.56250000 </v>
   <v>       0.56250000       0.56250000       0.56250000 </v>
   <v>       0.06250000       0.31250000       0.31250000 </v>
   <v>       0.56250000       0.31250000       0.31250000 </v>
   <v>       0.06250000       0.81250000       0.31250000 </v>
   <v>       0.56250000       0.81250000       0.31250000 </v>
   <v>       0.06250000       0.31250000       0.81250000 </v>
   <v>       0.56250000       0.31250000       0.81250000 </v>
   <v>       0.06250000       0.81250000       0.81250000 </v>
   <v>       0.56250000       0.81250000       0.81250000 </v>
   <v>       0.31250000       0.06250000       0.31250000 </v>
   <v>       0.81250000       0.06250000       0.31250000 </v>
   <v>       0.31250000       0.56250000       0.31250000 </v>
   <v>       0.81250000       0.56250000       0.31250000 </v>
   <v>       0.31250000       0.05975589       0.81250000 </v>
   <v>       0.81250000       0.06250000       0.81250000 </v>
   <v>       0.31250000       0.56250000       0.81250000 </v>
   <v>       0.81250000       0.56250000       0.81250000 </v>
   <v>       0.31250000       0.31250000       0.06250000 </v>
   <v>       0.81250000       0.31250000       0.06250000 </v>
   <v>       0.31250000       0.81250000       0.06250000 </v>
   <v>       0.81250000       0.81250000       0.06250000 </v>
   <v>       0.31250000       0.31250000       0.56250000 </v>
   <v>       0.81250000       0.31250000       0.56250000 </v>
   <v>       0.31250000       0.81250000       0.56250000 </v>
   <v>       0.81250000       0.81250000       0.56250000 </v>
  </varray>
 </structure>
 <calculation>
  <scstep>
   <time name="dav">    5.49    5.50</time>
   <time name="total">    5.76    5.77</time>
   <energy>
    <i name="alphaZ">    105.52440745 </i>
    <i name="ewald">  -7265.47091938 </i>
    <i name="hartreedc">   -361.71272596 </i>
    <i name="XCdc">   -597.75714157 </i>
    <i name="pawpsdc">   5639.92317535 </i>
    <i name="pawaedc">  -4513.95313856 </i>
    <i name="eentropy">     -0.00109318 </i>
    <i name="bandstr">    856.88566910 </i>
    <i name="atom">   6596.14994790 </i>
    <i name="e_fr_energy">    459.58818117 </i>
    <i name="e_wo_entrp">    459.58927435 </i>
    <i name="e_0_energy">    459.58872776 </i>
   </energy>
  </scstep>
  <scstep>
   <time name="dav">    6.32    6.32</time>
   <time name="total">    6.32    6.33</time>
   <energy>
    <i name="e_fr_energy">   -300.08166889 </i>
    <i name="e_wo_entrp">   -300.08166889 </i>
    <i name="e_0_energy">   -300.08166889 </i>
   </energy>
  </scstep>
  <scstep>
   <time name="dav">    6.37    6.37</time>
   <time name="total">    6.37    6.38</time>
   <energy>
    <i name="e_fr_energy">   -350.93658681 </i>
    <i name="e_wo_entrp">   -350.93658681 </i>
    <i name="e_0_energy">   -350.93658681 </i>
   </energy>
  </scstep>
  <scstep>
   <time name="dav">    6.30    6.31</time>
   <time name="total">    6.30    6.31</time>
   <energy>
    <i name="e_fr_energy">   -352.26518900 </i>
    <i name="e_wo_entrp">   -352.26518900 </i>
    <i name="e_0_energy">   -352.26518900 </i>
   </energy>
  </scstep>
  <scstep>
   <time name="dav">    6.30    6.30</time>
   <time name="total">    6.60    6.61</time>
   <energy>
    <i name="e_fr_energy">   -352.31308888 </i>
    <i name="e_wo_entrp">   -352.31308888 </i>
    <i name="e_0_energy">   -352.31308888 </i>
   </energy>
  </scstep>
  <scstep>
   <time name="dav">    6.11    6.12</time>
   <time name="total">    6.68    6.69</time>
   <energy>
    <i name="e_fr_energy">   -348.58449473 </i>
    <i name="e_wo_entrp">   -348.58449473 </i>
    <i name="e_0_energy">   -348.58449473 </i>
   </energy>
  </scstep>
  <scstep>
   <time name="dav">    6.08    6.09</time>
   <time name="total">    6.65    6.66</time>
   <energy>
    <i name="e_fr_energy">   -346.87186617 </i>
    <i name="e_wo_entrp">   -346.87186617 </i>
    <i name="e_0_energy">   -346.87186617 </i>
   </energy>
  </scstep>
  <scstep>
   <time name="dav">    6.22    6.23</time>
   <time name="total">    6.78    6.79</time>
   <energy>
    <i name="e_fr_energy">   -346.89815073 </i>
    <i name="e_wo_entrp">   -346.89815073 </i>
    <i name="e_0_energy">   -346.89815073 </i>
   </energy>
  </scstep>
  <scstep>
   <time name="dav">    6.38    6.39</time>
   <time name="total">    6.95    6.96</time>
   <energy>
    <i name="e_fr_energy">   -346.90489620 </i>
    <i name="e_wo_entrp">   -346.90489620 </i>
    <i name="e_0_energy">   -346.90489620 </i>
   </energy>
  </scstep>
  <scstep>
   <time name="dav">    5.98    5.99</time>
   <time name="total">    6.55    6.57</time>
   <energy>
    <i name="e_fr_energy">   -346.90694109 </i>
    <i name="e_wo_entrp">   -346.90694109 </i>
    <i name="e_0_energy">   -346.90694109 </i>
   </energy>
  </scstep>
  <scstep>
   <time name="dav">    6.30    6.30</time>
   <time name="total">    6.87    6.90</time>
   <energy>
    <i name="e_fr_energy">   -346.90691716 </i>
    <i name="e_wo_entrp">   -346.90691716 </i>
    <i name="e_0_energy">   -346.90691716 </i>
   </energy>
  </scstep>
  <scstep>
   <time name="dav">    6.15    6.17</time>
   <time name="total">    6.72    6.74</time>
   <energy>
    <i name="e_fr_energy">   -346.90693197 </i>
    <i name="e_wo_entrp">   -346.90693197 </i>
    <i name="e_0_energy">   -346.90693197 </i>
   </energy>
  </scstep>
  <scstep>
   <time name="dav">    6.18    6.19</time>
   <time name="total">    6.75    6.76</time>
   <energy>
    <i name="e_fr_energy">   -346.90693258 </i>
    <i name="e_wo_entrp">   -346.90693258 </i>
    <i name="e_0_energy">   -346.90693258 </i>
   </energy>
  </scstep>
  <scstep>
   <time name="dav">    6.50    6.51</time>
   <time name="total">    7.07    7.08</time>
   <energy>
    <i name="e_fr_energy">   -346.90693316 </i>
    <i name="e_wo_entrp">   -346.90693316 </i>
    <i name="e_0_energy">   -346.90693316 </i>
   </energy>
  </scstep>
  <scstep>
   <time name="dav">    5.39    5.40</time>
   <time name="total">    5.96    6.01</time>
   <energy>
    <i name="e_fr_energy">   -346.90693292 </i>
    <i name="e_wo_entrp">   -346.90693292 </i>
    <i name="e_0_energy">   -346.90693292 </i>
   </energy>
  </scstep>
  <scstep>
   <time name="dav">    4.24    4.24</time>
   <time name="total">    4.80    4.82</time>
   <energy>
    <i name="e_fr_energy">   -346.90693299 </i>
    <i name="e_wo_entrp">   -346.90693299 </i>
    <i name="e_0_energy">   -346.90693299 </i>
   </energy>
  </scstep>
  <scstep>
   <time name="dav">    4.22    4.25</time>
   <time name="total">    4.79    5.75</time>
   <energy>
    <i name="e_fr_energy">   -346.90693298 </i>
    <i name="e_wo_entrp">   -346.90693298 </i>
    <i name="e_0_energy">   -346.90693298 </i>
   </energy>
  </scstep>
  <scstep>
   <time name="dav">    4.22    4.24</time>
   <time name="total">    4.79    4.82</time>
   <energy>
    <i name="e_fr_energy">   -346.90693299 </i>
    <i name="e_wo_entrp">   -346.90693299 </i>
    <i name="e_0_energy">   -346.90693299 </i>
   </energy>
  </scstep>
  <scstep>
   <time name="dav">    4.24    4.25</time>
   <time name="total">    4.50    4.51</time>
   <energy>
    <i name="alphaZ">    105.52440745 </i>
    <i name="ewald">  -7265.47091938 </i>
    <i name="hartreedc">   -485.14345134 </i>
    <i name="XCdc">   -577.61229265 </i>
    <i name="pawpsdc">  27883.43812782 </i>
    <i name="pawaedc"> -26764.15605619 </i>
    <i name="eentropy">      0.00000000 </i>
    <i name="bandstr">    160.36330338 </i>
    <i name="atom">   6596.14994790 </i>
    <i name="e_fr_energy">   -346.90693300 </i>
    <i name="e_wo_entrp">   -346.90693300 </i>
    <i name="e_0_energy">   -346.90693300 </i>
   </energy>
  </scstep>
  <structure>
   <crystal>
    <varray name="basis" >
     <v>      10.93252578       0.00000000       0.00000000 </v>
     <v>       0.00000000      10.93252578       0.00000000 </v>
     <v>       0.00000000       0.00000000      10.93252578 </v>
    </varray>
    <i name="volume">   1306.65679237 </i>
    <varray name="rec_basis" >
     <v>       0.09147017       0.00000000       0.00000000 </v>
     <v>       0.00000000       0.09147017       0.00000000 </v>
     <v>       0.00000000       0.00000000       0.09147017 </v>
    </varray>
   </crystal>
   <varray name="positions" >
    <v>       0.44024411       0.43750000       0.43750000 </v>
    <v>       0.93750000       0.43750000       0.43750000 </v>
    <v>       0.43750000       0.93750000       0.43750000 </v>
    <v>       0.93750000       0.93750000       0.43750000 </v>
    <v>       0.43750000       0.43750000       0.93750000 </v>
    <v>       0.93750000       0.43750000       0.93750000 </v>
    <v>       0.43750000       0.93750000       0.93750000 </v>
    <v>       0.93750000       0.93750000       0.93750000 </v>
    <v>       0.43750000       0.18750000       0.18750000 </v>
    <v>       0.93750000       0.18750000       0.18750000 </v>
    <v>       0.43750000       0.68750000       0.18750000 </v>
    <v>       0.93750000       0.68750000       0.18750000 </v>
    <v>       0.43750000       0.18750000       0.68750000 </v>
    <v>       0.93750000       0.18750000       0.68750000 </v>
    <v>       0.43750000       0.68750000       0.68750000 </v>
    <v>       0.93750000       0.68750000       0.68750000 </v>
    <v>       0.18750000       0.43750000       0.18750000 </v>
    <v>       0.68750000       0.43750000       0.18750000 </v>
    <v>       0.18750000       0.93750000       0.18750000 </v>
    <v>       0.68750000       0.93750000       0.18750000 </v>
    <v>       0.18750000       0.43750000       0.68750000 </v>
    <v>       0.68750000       0.43750000       0.68750000 </v>
    <v>       0.18750000       0.93750000       0.68750000 </v>
    <v>       0.68750000       0.93750000       0.68750000 </v>
    <v>       0.18750000       0.18750000       0.43750000 </v>
    <v>       0.68750000       0.18750000       0.43750000 </v>
    <v>       0.18750000       0.68750000       0.43750000 </v>
    <v>       0.68750000       0.68750000       0.43750000 </v>
    <v>       0.18750000       0.18750000       0.93750000 </v>
    <v>       0.68750000       0.18750000       0.93750000 </v>
    <v>       0.18750000       0.68750000       0.93750000 </v>
    <v>       0.68750000       0.68750000       0.93750000 </v>
    <v>       0.06250000       0.06250000       0.06250000 </v>
    <v>       0.56250000       0.06250000       0.06250000 </v>
    <v>       0.06250000       0.56250000       0.06250000 </v>
    <v>       0.56250000       0.56250000       0.06250000 </v>
    <v>       0.06250000       0.06250000       0.56250000 </v>
    <v>       0.56250000       0.06250000       0.56250000 </v>
    <v>       0.06250000       0.56250000       0.56250000 </v>
    <v>       0.56250000       0.56250000       0.56250000 </v>
    <v>       0.06250000       0.31250000       0.31250000 </v>
    <v>       0.56250000       0.31250000       0.31250000 </v>
    <v>       0.06250000       0.81250000       0.31250000 </v>
    <v>       0.56250000       0.81250000       0.31250000 </v>
    <v>       0.06250000       0.31250000       0.81250000 </v>
    <v>       0.56250000       0.31250000       0.81250000 </v>
    <v>       0.06250000       0.81250000       0.81250000 </v>
    <v>       0.56250000       0.81250000       0.81250000 </v>
    <v>       0.31250000       0.06250000       0.31250000 </v>
    <v>       0.81250000       0.06250000       0.31250000 </v>
    <v>       0.31250000       0.56250000       0.31250000 </v>
    <v>       0.81250000       0.56250000       0.31250000 </v>
    <v>       0.31250000       0.05975589       0.81250000 </v>
    <v>       0.81250000       0.06250000       0.81250000 </v>
    <v>       0.31250000       0.56250000       0.81250000 </v>
    <v>       0.81250000       0.56250000       0.81250000 </v>
    <v>       0.31250000       0.31250000       0.06250000 </v>
    <v>       0.81250000       0.31250000       0.06250000 </v>
    <v>       0.31250000       0.81250000       0.06250000 </v>
    <v>       0.81250000       0.81250000       0.06250000 </v>
    <v>       0.31250000       0.31250000       0.56250000 </v>
    <v>       0.81250000       0.31250000       0.56250000 </v>
    <v>       0.31250000       0.81250000       0.56250000 </v>
    <v>       0.81250000       0.81250000       0.56250000 </v>
   </varray>
  </structure>
  <varray name="forces" >
   <v>      -0.38649158      -0.00061508       0.00062129 </v>
   <v>       0.00130546       0.00053467       0.00075574 </v>
   <v>       0.00252846       0.00147503       0.00092752 </v>
   <v>       0.00051102      -0.00621682       0.00068550 </v>
   <v>       0.00222788       0.00027398       0.00090675 </v>
   <v>       0.00042685      -0.00061201       0.00065599 </v>
   <v>       0.05456327      -0.09583280       0.06608574 </v>
   <v>       0.00150254       0.00147321       0.00121047 </v>
   <v>      -0.01413451       0.00420926       0.00366056 </v>
   <v>      -0.00070058      -0.00590653       0.00090343 </v>
   <v>      -0.01348270       0.00200211      -0.00202142 </v>
   <v>      -0.00074633       0.00076791       0.00051235 </v>
   <v>      -0.07374662      -0.09576101       0.06357408 </v>
   <v>      -0.00089059       0.00119785       0.00147899 </v>
   <v>      -0.01378075      -0.00249690      -0.00186917 </v>
   <v>      -0.00066531      -0.00089045       0.00048726 </v>
   <v>       0.00499370      -0.00328818       0.00495902 </v>
   <v>       0.00504280      -0.00222618      -0.00644583 </v>
   <v>      -0.00019425       0.00124200      -0.00278860 </v>
   <v>       0.00032872      -0.00644980       0.00115725 </v>
   <v>       0.00473608       0.00294751      -0.00647276 </v>
   <v>       0.00519751       0.00215978       0.00502627 </v>
   <v>      -0.06509325      -0.09558017      -0.06422879 </v>
   <v>       0.00009574       0.00170730      -0.00306110 </v>
   <v>       0.00688704       0.00698990      -0.00356446 </v>
   <v>       0.00648379      -0.01181979      -0.00344595 </v>
   <v>       0.00635462      -0.00622493       0.00203382 </v>
   <v>       0.00655031       0.00622871       0.00201767 </v>
   <v>       0.06197330      -0.09491866      -0.06119711 </v>
   <v>       0.00191211       0.00328333      -0.00147496 </v>
   <v>       0.00192007       0.00213980      -0.00067546 </v>
   <v>       0.00165935      -0.00250757      -0.00047173 </v>
   <v>      -0.00319475       0.01352912       0.00341778 </v>
   <v>       0.00344196       0.01356625      -0.00209670 </v>
   <v>       0.00038503       0.00065439       0.00083338 </v>
   <v>      -0.00170147       0.00123816       0.00069969 </v>
   <v>       0.00339625       0.01348539       0.00342666 </v>
   <v>       0.00117779       0.01369427      -0.00143915 </v>
   <v>      -0.00005084       0.00093414       0.00113656 </v>
   <v>       0.09603922       0.06610160       0.06589008 </v>
   <v>      -0.00213691      -0.00192535      -0.00114077 </v>
   <v>       0.09766871      -0.06713987      -0.06588320 </v>
   <v>       0.00246378      -0.00162009      -0.00088434 </v>
   <v>      -0.00332395      -0.00194635      -0.00098318 </v>
   <v>       0.00618065      -0.00630696      -0.00327051 </v>
   <v>      -0.00702139      -0.00686629       0.00175727 </v>
   <v>      -0.00623260      -0.00655896      -0.00353793 </v>
   <v>       0.01189180      -0.00648804       0.00207405 </v>
   <v>      -0.00143228      -0.00220972       0.00124546 </v>
   <v>       0.00066106       0.01091390       0.00070690 </v>
   <v>       0.09307794      -0.06079457       0.06096434 </v>
   <v>      -0.00027644      -0.00148005       0.00090482 </v>
   <v>       0.00613724       0.38651434       0.00066806 </v>
   <v>      -0.00053397      -0.00206506       0.00074433 </v>
   <v>      -0.00143161      -0.00179651       0.00089000 </v>
   <v>       0.00066344      -0.00052959       0.00063034 </v>
   <v>       0.00123726      -0.00439723      -0.00645102 </v>
   <v>       0.00089146      -0.00031714       0.00122762 </v>
   <v>       0.00890831      -0.00511759       0.00503163 </v>
   <v>      -0.00030433      -0.00027257      -0.00259149 </v>
   <v>       0.09041694       0.05531793      -0.05535829 </v>
   <v>      -0.00050744      -0.00011106      -0.00276397 </v>
   <v>      -0.00420002      -0.00490850      -0.00693502 </v>
   <v>       0.00043503      -0.00038345       0.00114422 </v>
  </varray>
  <varray name="stress" >
   <v>       0.00155617      -0.00007834       0.33480462 </v>
   <v>      -0.00007829       0.00170602       0.33497928 </v>
   <v>       0.33480461       0.33497927       0.02062238 </v>
  </varray>
  <energy>
   <i name="e_fr_energy">   -346.90693300 </i>
   <i name="e_wo_entrp">   -346.90693300 </i>
   <i name="e_0_energy">      0.00000000 </i>
  </energy>
  <time name="totalsc">  128.84  130.11</time>
  <eigenvalues>
   <array>
    <dimension dim="1">band</dimension>
    <dimension dim="2">kpoint</dimension>
    <dimension dim="3">spin</dimension>
    <field>eigene</field>
    <field>occ</field>
    <set>
     <set comment="spin 1">
      <set comment="kpoint 1">
       <r>   -5.9931    1.0000 </r>
       <r>   -5.4691    1.0000 </r>
       <r>   -5.4633    1.0000 </r>
       <r>   -5.4623    1.0000 </r>
       <r>   -4.9696    1.0000 </r>
       <r>   -4.9638    1.0000 </r>
       <r>   -4.9630    1.0000 </r>
       <r>   -4.5313    1.0000 </r>
       <r>   -4.4363    1.0000 </r>
       <r>   -4.4306    1.0000 </r>
       <r>   -4.4294    1.0000 </r>
       <r>   -4.0238    1.0000 </r>
       <r>   -4.0226    1.0000 </r>
       <r>   -4.0155    1.0000 </r>
       <r>   -4.0140    1.0000 </r>
       <r>   -4.0132    1.0000 </r>
       <r>   -4.0125    1.0000 </r>
       <r>   -3.8288    1.0000 </r>
       <r>   -3.8244    1.0000 </r>
       <r>   -3.8217    1.0000 </r>
       <r>   -3.3311    1.0000 </r>
       <r>   -3.3250    1.0000 </r>
       <r>   -3.3237    1.0000 </r>
       <r>   -2.9632    1.0000 </r>
       <r>   -2.9593    1.0000 </r>
       <r>   -2.9562    1.0000 </r>
       <r>   -2.7987    1.0000 </r>
       <r>   -2.7954    1.0000 </r>
       <r>   -2.7900    1.0000 </r>
       <r>   -2.7889    1.0000 </r>
       <r>   -2.7873    1.0000 </r>
       <r>   -2.7863    1.0000 </r>
       <r>   -1.2573    1.0000 </r>
       <r>   -1.2529    1.0000 </r>
       <r>   -1.2476    1.0000 </r>
       <r>   -1.2462    1.0000 </r>
       <r>   -1.2443    1.0000 </r>
       <r>   -1.2425    1.0000 </r>
       <r>   -1.1531    1.0000 </r>
       <r>   -1.1505    1.0000 </r>
       <r>   -1.1469    1.0000 </r>
       <r>   -1.0337    1.0000 </r>
       <r>   -1.0325    1.0000 </r>
       <r>   -1.0268    1.0000 </r>
       <r>   -0.9560    1.0000 </r>
       <r>   -0.9503    1.0000 </r>
       <r>   -0.9460    1.0000 </r>
       <r>   -0.2481    1.0000 </r>
       <r>   -0.1660    1.0000 </r>
       <r>   -0.1646    1.0000 </r>
       <r>   -0.1590    1.0000 </r>
       <r>   -0.1559    1.0000 </r>
       <r>   -0.1550    1.0000 </r>
       <r>   -0.1516    1.0000 </r>
       <r>    0.7084    1.0000 </r>
       <r>    0.7112    1.0000 </r>
       <r>    0.7164    1.0000 </r>
       <r>    1.0447    1.0000 </r>
       <r>    1.0469    1.0000 </r>
       <r>    1.0498    1.0000 </r>
       <r>    1.6526    1.0000 </r>
       <r>    1.6553    1.0000 </r>
       <r>    1.6567    1.0000 </r>
       <r>    1.6577    1.0000 </r>
       <r>    1.6593    1.0000 </r>
       <r>    1.6605    1.0000 </r>
       <r>    1.7148    1.0000 </r>
       <r>    1.7178    1.0000 </r>
       <r>    1.7190    1.0000 </r>
       <r>    2.2644    1.0000 </r>
       <r>    2.2655    1.0000 </r>
       <r>    2.2677    1.0000 </r>
       <r>    2.3679    1.0000 </r>
       <r>    2.3691    1.0000 </r>
       <r>    2.3700    1.0000 </r>
       <r>    2.3721    1.0000 </r>
       <r>    2.3755    1.0000 </r>
       <r>    2.3778    1.0000 </r>
       <r>    2.4242    1.0000 </r>
       <r>    2.4272    1.0000 </r>
       <r>    2.4302    1.0000 </r>
       <r>    2.7292    1.0000 </r>
       <r>    2.7307    1.0000 </r>
       <r>    2.7346    1.0000 </r>
       <r>    2.7364    1.0000 </r>
       <r>    2.7378    1.0000 </r>
       <r>    2.7400    1.0000 </r>
       <r>    2.9985    1.0000 </r>
       <r>    3.0006    1.0000 </r>
       <r>    3.0016    1.0000 </r>
       <r>    3.0120    1.0000 </r>
       <r>    3.0149    1.0000 </r>
       <r>    3.0176    1.0000 </r>
       <r>    3.3559    1.0000 </r>
       <r>    3.3609    1.0000 </r>
       <r>    3.3629    1.0000 </r>
       <r>    3.3783    1.0000 </r>
       <r>    3.3818    1.0000 </r>
       <r>    3.3846    1.0000 </r>
       <r>    3.4651    1.0000 </r>
       <r>    3.4671    1.0000 </r>
       <r>    3.4709    1.0000 </r>
       <r>    3.7305    1.0000 </r>
       <r>    3.7358    1.0000 </r>
       <r>    3.7390    1.0000 </r>
       <r>    3.7405    1.0000 </r>
       <r>    3.7425    1.0000 </r>
       <r>    3.7436    1.0000 </r>
       <r>    3.7792    1.0000 </r>
       <r>    3.7813    1.0000 </r>
       <r>    3.7855    1.0000 </r>
       <r>    4.0368    1.0000 </r>
       <r>    4.0979    1.0000 </r>
       <r>    4.1007    1.0000 </r>
       <r>    4.1018    1.0000 </r>
       <r>    4.3399    1.0000 </r>
       <r>    4.3421    1.0000 </r>
       <r>    4.3468    1.0000 </r>
       <r>    4.3980    1.0000 </r>
       <r>    4.4008    1.0000 </r>
       <r>    4.4052    1.0000 </r>
       <r>    4.5617    1.0000 </r>
       <r>    4.5664    1.0000 </r>
       <r>    4.8688    1.0000 </r>
       <r>    4.8716    1.0000 </r>
       <r>    4.8777    1.0000 </r>
       <r>    5.3493    1.0000 </r>
       <r>    5.3548    1.0000 </r>
       <r>    6.5619    0.0000 </r>
       <r>    6.5657    0.0000 </r>
       <r>    6.5674    0.0000 </r>
       <r>    7.0012    0.0000 </r>
       <r>    7.0044    0.0000 </r>
       <r>    7.0099    0.0000 </r>
       <r>    7.2351    0.0000 </r>
       <r>    7.4888    0.0000 </r>
       <r>    7.4921    0.0000 </r>
       <r>    7.4959    0.0000 </r>
       <r>    7.6153    0.0000 </r>
       <r>    7.6175    0.0000 </r>
       <r>    7.6218    0.0000 </r>
       <r>    7.7779    0.0000 </r>
       <r>    7.7800    0.0000 </r>
       <r>    7.7826    0.0000 </r>
       <r>    7.7990    0.0000 </r>
       <r>    7.8029    0.0000 </r>
       <r>    7.8041    0.0000 </r>
       <r>    8.0233    0.0000 </r>
       <r>    8.0248    0.0000 </r>
       <r>    8.0283    0.0000 </r>
       <r>    8.0295    0.0000 </r>
       <r>    8.0326    0.0000 </r>
       <r>    8.0342    0.0000 </r>
       <r>    8.0836    0.0000 </r>
       <r>    8.2928    0.0000 </r>
       <r>    8.2947    0.0000 </r>
       <r>    8.2981    0.0000 </r>
       <r>    8.4946    0.0000 </r>
       <r>    8.4965    0.0000 </r>
       <r>    8.5015    0.0000 </r>
       <r>    8.5042    0.0000 </r>
       <r>    8.5087    0.0000 </r>
       <r>    8.5202    0.0000 </r>
       <r>    8.5476    0.0000 </r>
      </set>
      <set comment="kpoint 2">
       <r>   -5.9932    1.0000 </r>
       <r>   -5.4690    1.0000 </r>
       <r>   -5.4640    1.0000 </r>
       <r>   -5.4613    1.0000 </r>
       <r>   -4.9697    1.0000 </r>
       <r>   -4.9648    1.0000 </r>
       <r>   -4.9621    1.0000 </r>
       <r>   -4.5323    1.0000 </r>
       <r>   -4.4369    1.0000 </r>
       <r>   -4.4315    1.0000 </r>
       <r>   -4.4290    1.0000 </r>
       <r>   -4.0247    1.0000 </r>
       <r>   -4.0191    1.0000 </r>
       <r>   -4.0175    1.0000 </r>
       <r>   -4.0146    1.0000 </r>
       <r>   -4.0144    1.0000 </r>
       <r>   -4.0084    1.0000 </r>
       <r>   -3.8283    1.0000 </r>
       <r>   -3.8244    1.0000 </r>
       <r>   -3.8203    1.0000 </r>
       <r>   -3.3334    1.0000 </r>
       <r>   -3.3272    1.0000 </r>
       <r>   -3.3244    1.0000 </r>
       <r>   -2.9628    1.0000 </r>
       <r>   -2.9591    1.0000 </r>
       <r>   -2.9557    1.0000 </r>
       <r>   -2.7985    1.0000 </r>
       <r>   -2.7939    1.0000 </r>
       <r>   -2.7922    1.0000 </r>
       <r>   -2.7893    1.0000 </r>
       <r>   -2.7885    1.0000 </r>
       <r>   -2.7825    1.0000 </r>
       <r>   -1.2573    1.0000 </r>
       <r>   -1.2527    1.0000 </r>
       <r>   -1.2503    1.0000 </r>
       <r>   -1.2472    1.0000 </r>
       <r>   -1.2454    1.0000 </r>
       <r>   -1.2404    1.0000 </r>
       <r>   -1.1545    1.0000 </r>
       <r>   -1.1510    1.0000 </r>
       <r>   -1.1477    1.0000 </r>
       <r>   -1.0376    1.0000 </r>
       <r>   -1.0329    1.0000 </r>
       <r>   -1.0274    1.0000 </r>
       <r>   -0.9535    1.0000 </r>
       <r>   -0.9469    1.0000 </r>
       <r>   -0.9397    1.0000 </r>
       <r>   -0.2446    1.0000 </r>
       <r>   -0.1684    1.0000 </r>
       <r>   -0.1651    1.0000 </r>
       <r>   -0.1616    1.0000 </r>
       <r>   -0.1583    1.0000 </r>
       <r>   -0.1552    1.0000 </r>
       <r>   -0.1521    1.0000 </r>
       <r>    0.7088    1.0000 </r>
       <r>    0.7146    1.0000 </r>
       <r>    0.7194    1.0000 </r>
       <r>    1.0428    1.0000 </r>
       <r>    1.0473    1.0000 </r>
       <r>    1.0512    1.0000 </r>
       <r>    1.6508    1.0000 </r>
       <r>    1.6555    1.0000 </r>
       <r>    1.6566    1.0000 </r>
       <r>    1.6578    1.0000 </r>
       <r>    1.6592    1.0000 </r>
       <r>    1.6613    1.0000 </r>
       <r>    1.7131    1.0000 </r>
       <r>    1.7160    1.0000 </r>
       <r>    1.7196    1.0000 </r>
       <r>    2.2656    1.0000 </r>
       <r>    2.2677    1.0000 </r>
       <r>    2.2699    1.0000 </r>
       <r>    2.3656    1.0000 </r>
       <r>    2.3665    1.0000 </r>
       <r>    2.3696    1.0000 </r>
       <r>    2.3715    1.0000 </r>
       <r>    2.3746    1.0000 </r>
       <r>    2.3766    1.0000 </r>
       <r>    2.4209    1.0000 </r>
       <r>    2.4259    1.0000 </r>
       <r>    2.4288    1.0000 </r>
       <r>    2.7276    1.0000 </r>
       <r>    2.7327    1.0000 </r>
       <r>    2.7353    1.0000 </r>
       <r>    2.7359    1.0000 </r>
       <r>    2.7378    1.0000 </r>
       <r>    2.7403    1.0000 </r>
       <r>    2.9972    1.0000 </r>
       <r>    2.9993    1.0000 </r>
       <r>    3.0007    1.0000 </r>
       <r>    3.0096    1.0000 </r>
       <r>    3.0141    1.0000 </r>
       <r>    3.0174    1.0000 </r>
       <r>    3.3583    1.0000 </r>
       <r>    3.3617    1.0000 </r>
       <r>    3.3656    1.0000 </r>
       <r>    3.3804    1.0000 </r>
       <r>    3.3843    1.0000 </r>
       <r>    3.3885    1.0000 </r>
       <r>    3.4632    1.0000 </r>
       <r>    3.4670    1.0000 </r>
       <r>    3.4697    1.0000 </r>
       <r>    3.7334    1.0000 </r>
       <r>    3.7390    1.0000 </r>
       <r>    3.7407    1.0000 </r>
       <r>    3.7423    1.0000 </r>
       <r>    3.7437    1.0000 </r>
       <r>    3.7484    1.0000 </r>
       <r>    3.7769    1.0000 </r>
       <r>    3.7811    1.0000 </r>
       <r>    3.7845    1.0000 </r>
       <r>    4.0406    1.0000 </r>
       <r>    4.0958    1.0000 </r>
       <r>    4.0981    1.0000 </r>
       <r>    4.1000    1.0000 </r>
       <r>    4.3371    1.0000 </r>
       <r>    4.3411    1.0000 </r>
       <r>    4.3447    1.0000 </r>
       <r>    4.4005    1.0000 </r>
       <r>    4.4057    1.0000 </r>
       <r>    4.4117    1.0000 </r>
       <r>    4.5588    1.0000 </r>
       <r>    4.5670    1.0000 </r>
       <r>    4.8649    1.0000 </r>
       <r>    4.8702    1.0000 </r>
       <r>    4.8751    1.0000 </r>
       <r>    5.3451    1.0000 </r>
       <r>    5.3544    1.0000 </r>
       <r>    6.5603    0.0000 </r>
       <r>    6.5633    0.0000 </r>
       <r>    6.5666    0.0000 </r>
       <r>    7.0001    0.0000 </r>
       <r>    7.0035    0.0000 </r>
       <r>    7.0097    0.0000 </r>
       <r>    7.2337    0.0000 </r>
       <r>    7.4870    0.0000 </r>
       <r>    7.4896    0.0000 </r>
       <r>    7.4955    0.0000 </r>
       <r>    7.6158    0.0000 </r>
       <r>    7.6196    0.0000 </r>
       <r>    7.6233    0.0000 </r>
       <r>    7.7761    0.0000 </r>
       <r>    7.7794    0.0000 </r>
       <r>    7.7833    0.0000 </r>
       <r>    7.7995    0.0000 </r>
       <r>    7.8012    0.0000 </r>
       <r>    7.8035    0.0000 </r>
       <r>    8.0231    0.0000 </r>
       <r>    8.0275    0.0000 </r>
       <r>    8.0299    0.0000 </r>
       <r>    8.0327    0.0000 </r>
       <r>    8.0342    0.0000 </r>
       <r>    8.0356    0.0000 </r>
       <r>    8.0813    0.0000 </r>
       <r>    8.2919    0.0000 </r>
       <r>    8.2945    0.0000 </r>
       <r>    8.2985    0.0000 </r>
       <r>    8.4942    0.0000 </r>
       <r>    8.4994    0.0000 </r>
       <r>    8.5014    0.0000 </r>
       <r>    8.5061    0.0000 </r>
       <r>    8.5100    0.0000 </r>
       <r>    8.5205    0.0000 </r>
       <r>    8.5412    0.0000 </r>
      </set>
      <set comment="kpoint 3">
       <r>   -5.9932    1.0000 </r>
       <r>   -5.4687    1.0000 </r>
       <r>   -5.4647    1.0000 </r>
       <r>   -5.4609    1.0000 </r>
       <r>   -4.9693    1.0000 </r>
       <r>   -4.9655    1.0000 </r>
       <r>   -4.9617    1.0000 </r>
       <r>   -4.5322    1.0000 </r>
       <r>   -4.4364    1.0000 </r>
       <r>   -4.4325    1.0000 </r>
       <r>   -4.4284    1.0000 </r>
       <r>   -4.0237    1.0000 </r>
       <r>   -4.0190    1.0000 </r>
       <r>   -4.0183    1.0000 </r>
       <r>   -4.0163    1.0000 </r>
       <r>   -4.0139    1.0000 </r>
       <r>   -4.0076    1.0000 </r>
       <r>   -3.8283    1.0000 </r>
       <r>   -3.8243    1.0000 </r>
       <r>   -3.8202    1.0000 </r>
       <r>   -3.3326    1.0000 </r>
       <r>   -3.3289    1.0000 </r>
       <r>   -3.3236    1.0000 </r>
       <r>   -2.9627    1.0000 </r>
       <r>   -2.9591    1.0000 </r>
       <r>   -2.9558    1.0000 </r>
       <r>   -2.7984    1.0000 </r>
       <r>   -2.7932    1.0000 </r>
       <r>   -2.7925    1.0000 </r>
       <r>   -2.7910    1.0000 </r>
       <r>   -2.7884    1.0000 </r>
       <r>   -2.7814    1.0000 </r>
       <r>   -1.2568    1.0000 </r>
       <r>   -1.2518    1.0000 </r>
       <r>   -1.2505    1.0000 </r>
       <r>   -1.2486    1.0000 </r>
       <r>   -1.2457    1.0000 </r>
       <r>   -1.2399    1.0000 </r>
       <r>   -1.1546    1.0000 </r>
       <r>   -1.1511    1.0000 </r>
       <r>   -1.1476    1.0000 </r>
       <r>   -1.0376    1.0000 </r>
       <r>   -1.0327    1.0000 </r>
       <r>   -1.0277    1.0000 </r>
       <r>   -0.9530    1.0000 </r>
       <r>   -0.9478    1.0000 </r>
       <r>   -0.9392    1.0000 </r>
       <r>   -0.2446    1.0000 </r>
       <r>   -0.1672    1.0000 </r>
       <r>   -0.1638    1.0000 </r>
       <r>   -0.1626    1.0000 </r>
       <r>   -0.1601    1.0000 </r>
       <r>   -0.1559    1.0000 </r>
       <r>   -0.1511    1.0000 </r>
       <r>    0.7093    1.0000 </r>
       <r>    0.7136    1.0000 </r>
       <r>    0.7200    1.0000 </r>
       <r>    1.0430    1.0000 </r>
       <r>    1.0469    1.0000 </r>
       <r>    1.0514    1.0000 </r>
       <r>    1.6516    1.0000 </r>
       <r>    1.6541    1.0000 </r>
       <r>    1.6569    1.0000 </r>
       <r>    1.6581    1.0000 </r>
       <r>    1.6596    1.0000 </r>
       <r>    1.6609    1.0000 </r>
       <r>    1.7133    1.0000 </r>
       <r>    1.7155    1.0000 </r>
       <r>    1.7199    1.0000 </r>
       <r>    2.2661    1.0000 </r>
       <r>    2.2677    1.0000 </r>
       <r>    2.2693    1.0000 </r>
       <r>    2.3648    1.0000 </r>
       <r>    2.3670    1.0000 </r>
       <r>    2.3702    1.0000 </r>
       <r>    2.3725    1.0000 </r>
       <r>    2.3740    1.0000 </r>
       <r>    2.3761    1.0000 </r>
       <r>    2.4208    1.0000 </r>
       <r>    2.4256    1.0000 </r>
       <r>    2.4291    1.0000 </r>
       <r>    2.7292    1.0000 </r>
       <r>    2.7328    1.0000 </r>
       <r>    2.7340    1.0000 </r>
       <r>    2.7347    1.0000 </r>
       <r>    2.7379    1.0000 </r>
       <r>    2.7411    1.0000 </r>
       <r>    2.9964    1.0000 </r>
       <r>    2.9995    1.0000 </r>
       <r>    3.0018    1.0000 </r>
       <r>    3.0099    1.0000 </r>
       <r>    3.0134    1.0000 </r>
       <r>    3.0174    1.0000 </r>
       <r>    3.3585    1.0000 </r>
       <r>    3.3620    1.0000 </r>
       <r>    3.3646    1.0000 </r>
       <r>    3.3821    1.0000 </r>
       <r>    3.3849    1.0000 </r>
       <r>    3.3868    1.0000 </r>
       <r>    3.4638    1.0000 </r>
       <r>    3.4658    1.0000 </r>
       <r>    3.4703    1.0000 </r>
       <r>    3.7339    1.0000 </r>
       <r>    3.7387    1.0000 </r>
       <r>    3.7406    1.0000 </r>
       <r>    3.7417    1.0000 </r>
       <r>    3.7435    1.0000 </r>
       <r>    3.7491    1.0000 </r>
       <r>    3.7774    1.0000 </r>
       <r>    3.7798    1.0000 </r>
       <r>    3.7852    1.0000 </r>
       <r>    4.0404    1.0000 </r>
       <r>    4.0950    1.0000 </r>
       <r>    4.0978    1.0000 </r>
       <r>    4.1013    1.0000 </r>
       <r>    4.3376    1.0000 </r>
       <r>    4.3402    1.0000 </r>
       <r>    4.3451    1.0000 </r>
       <r>    4.4006    1.0000 </r>
       <r>    4.4053    1.0000 </r>
       <r>    4.4118    1.0000 </r>
       <r>    4.5588    1.0000 </r>
       <r>    4.5670    1.0000 </r>
       <r>    4.8655    1.0000 </r>
       <r>    4.8691    1.0000 </r>
       <r>    4.8757    1.0000 </r>
       <r>    5.3451    1.0000 </r>
       <r>    5.3544    1.0000 </r>
       <r>    6.5598    0.0000 </r>
       <r>    6.5634    0.0000 </r>
       <r>    6.5670    0.0000 </r>
       <r>    7.0005    0.0000 </r>
       <r>    7.0030    0.0000 </r>
       <r>    7.0099    0.0000 </r>
       <r>    7.2337    0.0000 </r>
       <r>    7.4870    0.0000 </r>
       <r>    7.4896    0.0000 </r>
       <r>    7.4956    0.0000 </r>
       <r>    7.6157    0.0000 </r>
       <r>    7.6196    0.0000 </r>
       <r>    7.6232    0.0000 </r>
       <r>    7.7758    0.0000 </r>
       <r>    7.7800    0.0000 </r>
       <r>    7.7831    0.0000 </r>
       <r>    7.7979    0.0000 </r>
       <r>    7.8012    0.0000 </r>
       <r>    7.8050    0.0000 </r>
       <r>    8.0245    0.0000 </r>
       <r>    8.0271    0.0000 </r>
       <r>    8.0291    0.0000 </r>
       <r>    8.0304    0.0000 </r>
       <r>    8.0341    0.0000 </r>
       <r>    8.0377    0.0000 </r>
       <r>    8.0815    0.0000 </r>
       <r>    8.2920    0.0000 </r>
       <r>    8.2944    0.0000 </r>
       <r>    8.2986    0.0000 </r>
       <r>    8.4951    0.0000 </r>
       <r>    8.4967    0.0000 </r>
       <r>    8.5010    0.0000 </r>
       <r>    8.5038    0.0000 </r>
       <r>    8.5106    0.0000 </r>
       <r>    8.5181    0.0000 </r>
       <r>    8.5412    0.0000 </r>
      </set>
      <set comment="kpoint 4">
       <r>   -5.9932    1.0000 </r>
       <r>   -5.4676    1.0000 </r>
       <r>   -5.4644    1.0000 </r>
       <r>   -5.4620    1.0000 </r>
       <r>   -4.9684    1.0000 </r>
       <r>   -4.9652    1.0000 </r>
       <r>   -4.9631    1.0000 </r>
       <r>   -4.5332    1.0000 </r>
       <r>   -4.4359    1.0000 </r>
       <r>   -4.4323    1.0000 </r>
       <r>   -4.4301    1.0000 </r>
       <r>   -4.0220    1.0000 </r>
       <r>   -4.0194    1.0000 </r>
       <r>   -4.0170    1.0000 </r>
       <r>   -4.0166    1.0000 </r>
       <r>   -4.0119    1.0000 </r>
       <r>   -4.0091    1.0000 </r>
       <r>   -3.8271    1.0000 </r>
       <r>   -3.8242    1.0000 </r>
       <r>   -3.8196    1.0000 </r>
       <r>   -3.3342    1.0000 </r>
       <r>   -3.3285    1.0000 </r>
       <r>   -3.3276    1.0000 </r>
       <r>   -2.9621    1.0000 </r>
       <r>   -2.9591    1.0000 </r>
       <r>   -2.9555    1.0000 </r>
       <r>   -2.7968    1.0000 </r>
       <r>   -2.7945    1.0000 </r>
       <r>   -2.7915    1.0000 </r>
       <r>   -2.7911    1.0000 </r>
       <r>   -2.7867    1.0000 </r>
       <r>   -2.7826    1.0000 </r>
       <r>   -1.2553    1.0000 </r>
       <r>   -1.2541    1.0000 </r>
       <r>   -1.2492    1.0000 </r>
       <r>   -1.2489    1.0000 </r>
       <r>   -1.2468    1.0000 </r>
       <r>   -1.2421    1.0000 </r>
       <r>   -1.1554    1.0000 </r>
       <r>   -1.1512    1.0000 </r>
       <r>   -1.1487    1.0000 </r>
       <r>   -1.0382    1.0000 </r>
       <r>   -1.0329    1.0000 </r>
       <r>   -1.0319    1.0000 </r>
       <r>   -0.9481    1.0000 </r>
       <r>   -0.9452    1.0000 </r>
       <r>   -0.9346    1.0000 </r>
       <r>   -0.2410    1.0000 </r>
       <r>   -0.1679    1.0000 </r>
       <r>   -0.1648    1.0000 </r>
       <r>   -0.1611    1.0000 </r>
       <r>   -0.1603    1.0000 </r>
       <r>   -0.1588    1.0000 </r>
       <r>   -0.1563    1.0000 </r>
       <r>    0.7118    1.0000 </r>
       <r>    0.7147    1.0000 </r>
       <r>    0.7232    1.0000 </r>
       <r>    1.0440    1.0000 </r>
       <r>    1.0471    1.0000 </r>
       <r>    1.0500    1.0000 </r>
       <r>    1.6529    1.0000 </r>
       <r>    1.6542    1.0000 </r>
       <r>    1.6561    1.0000 </r>
       <r>    1.6577    1.0000 </r>
       <r>    1.6588    1.0000 </r>
       <r>    1.6610    1.0000 </r>
       <r>    1.7124    1.0000 </r>
       <r>    1.7152    1.0000 </r>
       <r>    1.7176    1.0000 </r>
       <r>    2.2677    1.0000 </r>
       <r>    2.2699    1.0000 </r>
       <r>    2.2711    1.0000 </r>
       <r>    2.3649    1.0000 </r>
       <r>    2.3660    1.0000 </r>
       <r>    2.3688    1.0000 </r>
       <r>    2.3695    1.0000 </r>
       <r>    2.3733    1.0000 </r>
       <r>    2.3748    1.0000 </r>
       <r>    2.4201    1.0000 </r>
       <r>    2.4224    1.0000 </r>
       <r>    2.4265    1.0000 </r>
       <r>    2.7307    1.0000 </r>
       <r>    2.7340    1.0000 </r>
       <r>    2.7343    1.0000 </r>
       <r>    2.7352    1.0000 </r>
       <r>    2.7372    1.0000 </r>
       <r>    2.7391    1.0000 </r>
       <r>    2.9967    1.0000 </r>
       <r>    2.9974    1.0000 </r>
       <r>    3.0002    1.0000 </r>
       <r>    3.0098    1.0000 </r>
       <r>    3.0127    1.0000 </r>
       <r>    3.0145    1.0000 </r>
       <r>    3.3612    1.0000 </r>
       <r>    3.3638    1.0000 </r>
       <r>    3.3663    1.0000 </r>
       <r>    3.3841    1.0000 </r>
       <r>    3.3876    1.0000 </r>
       <r>    3.3906    1.0000 </r>
       <r>    3.4635    1.0000 </r>
       <r>    3.4653    1.0000 </r>
       <r>    3.4678    1.0000 </r>
       <r>    3.7398    1.0000 </r>
       <r>    3.7407    1.0000 </r>
       <r>    3.7410    1.0000 </r>
       <r>    3.7433    1.0000 </r>
       <r>    3.7460    1.0000 </r>
       <r>    3.7518    1.0000 </r>
       <r>    3.7773    1.0000 </r>
       <r>    3.7792    1.0000 </r>
       <r>    3.7824    1.0000 </r>
       <r>    4.0445    1.0000 </r>
       <r>    4.0941    1.0000 </r>
       <r>    4.0950    1.0000 </r>
       <r>    4.0981    1.0000 </r>
       <r>    4.3367    1.0000 </r>
       <r>    4.3392    1.0000 </r>
       <r>    4.3415    1.0000 </r>
       <r>    4.4059    1.0000 </r>
       <r>    4.4079    1.0000 </r>
       <r>    4.4176    1.0000 </r>
       <r>    4.5593    1.0000 </r>
       <r>    4.5642    1.0000 </r>
       <r>    4.8642    1.0000 </r>
       <r>    4.8675    1.0000 </r>
       <r>    4.8707    1.0000 </r>
       <r>    5.3448    1.0000 </r>
       <r>    5.3501    1.0000 </r>
       <r>    6.5592    0.0000 </r>
       <r>    6.5611    0.0000 </r>
       <r>    6.5650    0.0000 </r>
       <r>    6.9994    0.0000 </r>
       <r>    7.0042    0.0000 </r>
       <r>    7.0076    0.0000 </r>
       <r>    7.2323    0.0000 </r>
       <r>    7.4853    0.0000 </r>
       <r>    7.4893    0.0000 </r>
       <r>    7.4927    0.0000 </r>
       <r>    7.6172    0.0000 </r>
       <r>    7.6216    0.0000 </r>
       <r>    7.6239    0.0000 </r>
       <r>    7.7752    0.0000 </r>
       <r>    7.7806    0.0000 </r>
       <r>    7.7821    0.0000 </r>
       <r>    7.7984    0.0000 </r>
       <r>    7.8001    0.0000 </r>
       <r>    7.8033    0.0000 </r>
       <r>    8.0278    0.0000 </r>
       <r>    8.0292    0.0000 </r>
       <r>    8.0302    0.0000 </r>
       <r>    8.0325    0.0000 </r>
       <r>    8.0357    0.0000 </r>
       <r>    8.0377    0.0000 </r>
       <r>    8.0793    0.0000 </r>
       <r>    8.2919    0.0000 </r>
       <r>    8.2952    0.0000 </r>
       <r>    8.2972    0.0000 </r>
       <r>    8.4942    0.0000 </r>
       <r>    8.5007    0.0000 </r>
       <r>    8.5020    0.0000 </r>
       <r>    8.5064    0.0000 </r>
       <r>    8.5094    0.0000 </r>
       <r>    8.5136    0.0000 </r>
       <r>    8.5408    0.0000 </r>
      </set>
     </set>
    </set>
   </array>
  </eigenvalues>
  <separator name="orbital magnetization" >
   <v name="MAGDIPOLOUT">      0.00000000      0.00000000      0.00000000</v>
  </separator>
  <dos>
   <i name="efermi">      5.59911149 </i>
   <total>
    <array>
     <dimension dim="1">gridpoints</dimension>
     <dimension dim="2">spin</dimension>
     <field>energy</field>
     <field>total</field>
     <field>integrated</field>
     <set>
      <set comment="spin 1">
       <r>    -6.7203     0.0000     0.0000 </r>
       <r>    -6.6670     0.0000     0.0000 </r>
       <r>    -6.6136     0.0000     0.0000 </r>
       <r>    -6.5603     0.0000     0.0000 </r>
       <r>    -6.5070     0.0000     0.0000 </r>
       <r>    -6.4537     0.0000     0.0000 </r>
       <r>    -6.4004     0.0000     0.0000 </r>
       <r>    -6.3471     0.0000     0.0000 </r>
       <r>    -6.2937     0.0000     0.0000 </r>
       <r>    -6.2404     0.0000     0.0000 </r>
       <r>    -6.1871     0.0000     0.0000 </r>
       <r>    -6.1338     0.0013     0.0001 </r>
       <r>    -6.0805     0.2525     0.0135 </r>
       <r>    -6.0272     6.0541     0.3363 </r>
       <r>    -5.9738    20.2375     1.4153 </r>
       <r>    -5.9205    10.2178     1.9601 </r>
       <r>    -5.8672     0.7419     1.9996 </r>
       <r>    -5.8139     0.0069     2.0000 </r>
       <r>    -5.7606     0.0000     2.0000 </r>
       <r>    -5.7073     0.0000     2.0000 </r>
       <r>    -5.6540     0.0000     2.0000 </r>
       <r>    -5.6006     0.0072     2.0004 </r>
       <r>    -5.5473     1.1175     2.0600 </r>
       <r>    -5.4940    21.9450     3.2300 </r>
       <r>    -5.4407    61.4889     6.5083 </r>
       <r>    -5.3874    26.3387     7.9126 </r>
       <r>    -5.3341     1.6258     7.9993 </r>
       <r>    -5.2807     0.0129     8.0000 </r>
       <r>    -5.2274     0.0000     8.0000 </r>
       <r>    -5.1741     0.0000     8.0000 </r>
       <r>    -5.1208     0.0007     8.0000 </r>
       <r>    -5.0675     0.2274     8.0122 </r>
       <r>    -5.0142     9.3581     8.5111 </r>
       <r>    -4.9608    52.5887    11.3149 </r>
       <r>    -4.9075    44.6198    13.6939 </r>
       <r>    -4.8542     5.6457    13.9949 </r>
       <r>    -4.8009     0.0954    14.0000 </r>
       <r>    -4.7476     0.0002    14.0000 </r>
       <r>    -4.6943     0.0001    14.0000 </r>
       <r>    -4.6409     0.0396    14.0021 </r>
       <r>    -4.5876     2.1617    14.1174 </r>
       <r>    -4.5343    15.9130    14.9658 </r>
       <r>    -4.4810    26.2739    16.3666 </r>
       <r>    -4.4277    55.3475    19.3175 </r>
       <r>    -4.3744    44.5932    21.6951 </r>
       <r>    -4.3210     5.6239    21.9949 </r>
       <r>    -4.2677     0.0949    22.0000 </r>
       <r>    -4.2144     0.0002    22.0000 </r>
       <r>    -4.1611     0.0056    22.0003 </r>
       <r>    -4.1078     1.1709    22.0627 </r>
       <r>    -4.0545    31.0817    23.7199 </r>
       <r>    -4.0011   117.6665    29.9934 </r>
       <r>    -3.9478    69.0580    33.6753 </r>
       <r>    -3.8945     8.7148    34.1400 </r>
       <r>    -3.8412    33.0471    35.9019 </r>
       <r>    -3.7879    59.7020    39.0850 </r>
       <r>    -3.7346    16.5154    39.9656 </r>
       <r>    -3.6812     0.6428    39.9998 </r>
       <r>    -3.6279     0.0031    40.0000 </r>
       <r>    -3.5746     0.0000    40.0000 </r>
       <r>    -3.5213     0.0000    40.0000 </r>
       <r>    -3.4680     0.0048    40.0003 </r>
       <r>    -3.4147     0.8483    40.0455 </r>
       <r>    -3.3614    19.0173    41.0594 </r>
       <r>    -3.3080    60.7255    44.2971 </r>
       <r>    -3.2547    29.7858    45.8851 </r>
       <r>    -3.2014     2.1344    45.9989 </r>
       <r>    -3.1481     0.0199    46.0000 </r>
       <r>    -3.0948     0.0075    46.0004 </r>
       <r>    -3.0415     1.1404    46.0612 </r>
       <r>    -2.9881    22.1853    47.2440 </r>
       <r>    -2.9348    61.5395    50.5251 </r>
       <r>    -2.8815    27.3037    51.9808 </r>
       <r>    -2.8282    33.5527    53.7697 </r>
       <r>    -2.7749   118.1798    60.0706 </r>
       <r>    -2.7216    67.8155    63.6863 </r>
       <r>    -2.6682     5.8170    63.9964 </r>
       <r>    -2.6149     0.0667    64.0000 </r>
       <r>    -2.5616     0.0001    64.0000 </r>
       <r>    -2.5083     0.0000    64.0000 </r>
       <r>    -2.4550     0.0000    64.0000 </r>
       <r>    -2.4017     0.0000    64.0000 </r>
       <r>    -2.3483     0.0000    64.0000 </r>
       <r>    -2.2950     0.0000    64.0000 </r>
       <r>    -2.2417     0.0000    64.0000 </r>
       <r>    -2.1884     0.0000    64.0000 </r>
       <r>    -2.1351     0.0000    64.0000 </r>
       <r>    -2.0818     0.0000    64.0000 </r>
       <r>    -2.0284     0.0000    64.0000 </r>
       <r>    -1.9751     0.0000    64.0000 </r>
       <r>    -1.9218     0.0000    64.0000 </r>
       <r>    -1.8685     0.0000    64.0000 </r>
       <r>    -1.8152     0.0000    64.0000 </r>
       <r>    -1.7619     0.0000    64.0000 </r>
       <r>    -1.7085     0.0000    64.0000 </r>
       <r>    -1.6552     0.0000    64.0000 </r>
       <r>    -1.6019     0.0000    64.0000 </r>
       <r>    -1.5486     0.0000    64.0000 </r>
       <r>    -1.4953     0.0000    64.0000 </r>
       <r>    -1.4420     0.0000    64.0000 </r>
       <r>    -1.3887     0.0103    64.0005 </r>
       <r>    -1.3353     1.7380    64.0932 </r>
       <r>    -1.2820    38.1037    66.1248 </r>
       <r>    -1.2287   122.5127    72.6567 </r>
       <r>    -1.1754    85.9546    77.2395 </r>
       <r>    -1.1221    66.6035    80.7905 </r>
       <r>    -1.0688    39.0095    82.8703 </r>
       <r>    -1.0154    63.9534    86.2801 </r>
       <r>    -0.9621    67.1427    89.8599 </r>
       <r>    -0.9088    61.2497    93.1255 </r>
       <r>    -0.8555    15.7795    93.9668 </r>
       <r>    -0.8022     0.6195    93.9998 </r>
       <r>    -0.7489     0.0032    94.0000 </r>
       <r>    -0.6955     0.0000    94.0000 </r>
       <r>    -0.6422     0.0000    94.0000 </r>
       <r>    -0.5889     0.0000    94.0000 </r>
       <r>    -0.5356     0.0000    94.0000 </r>
       <r>    -0.4823     0.0000    94.0000 </r>
       <r>    -0.4290     0.0000    94.0000 </r>
       <r>    -0.3756     0.0041    94.0002 </r>
       <r>    -0.3223     0.5271    94.0283 </r>
       <r>    -0.2690     8.9325    94.5046 </r>
       <r>    -0.2157    33.7353    96.3032 </r>
       <r>    -0.1624   100.7731   101.6761 </r>
       <r>    -0.1091   101.3876   107.0817 </r>
       <r>    -0.0557    16.8322   107.9791 </r>
       <r>    -0.0024     0.3910   107.9999 </r>
       <r>     0.0509     0.0011   108.0000 </r>
       <r>     0.1042     0.0000   108.0000 </r>
       <r>     0.1575     0.0000   108.0000 </r>
       <r>     0.2108     0.0000   108.0000 </r>
       <r>     0.2642     0.0000   108.0000 </r>
       <r>     0.3175     0.0000   108.0000 </r>
       <r>     0.3708     0.0000   108.0000 </r>
       <r>     0.4241     0.0000   108.0000 </r>
       <r>     0.4774     0.0000   108.0000 </r>
       <r>     0.5307     0.0000   108.0000 </r>
       <r>     0.5841     0.0144   108.0008 </r>
       <r>     0.6374     1.7249   108.0927 </r>
       <r>     0.6907    26.8509   109.5243 </r>
       <r>     0.7440    61.1932   112.7869 </r>
       <r>     0.7973    21.6349   113.9404 </r>
       <r>     0.8506     1.1102   113.9996 </r>
       <r>     0.9039     0.0105   114.0002 </r>
       <r>     0.9573     0.6353   114.0340 </r>
       <r>     1.0106    16.4407   114.9106 </r>
       <r>     1.0639    59.7005   118.0936 </r>
       <r>     1.1172    33.0533   119.8559 </r>
       <r>     1.1705     2.6750   119.9985 </r>
       <r>     1.2238     0.0282   120.0000 </r>
       <r>     1.2772     0.0000   120.0000 </r>
       <r>     1.3305     0.0000   120.0000 </r>
       <r>     1.3838     0.0000   120.0000 </r>
       <r>     1.4371     0.0000   120.0000 </r>
       <r>     1.4904     0.0003   120.0000 </r>
       <r>     1.5437     0.1605   120.0086 </r>
       <r>     1.5971    10.2081   120.5528 </r>
       <r>     1.6504    89.3401   125.3161 </r>
       <r>     1.7037   145.0696   133.0507 </r>
       <r>     1.7570    78.2574   137.2231 </r>
       <r>     1.8103    14.1255   137.9762 </r>
       <r>     1.8636     0.4448   137.9999 </r>
       <r>     1.9170     0.0018   138.0000 </r>
       <r>     1.9703     0.0000   138.0000 </r>
       <r>     2.0236     0.0000   138.0000 </r>
       <r>     2.0769     0.0000   138.0000 </r>
       <r>     2.1302     0.0058   138.0003 </r>
       <r>     2.1835     0.9765   138.0524 </r>
       <r>     2.2369    20.6208   139.1518 </r>
       <r>     2.2902    63.9896   142.5635 </r>
       <r>     2.3435    76.1827   146.6253 </r>
       <r>     2.3968   147.4799   154.4883 </r>
       <r>     2.4501   110.8848   160.4003 </r>
       <r>     2.5034    28.4370   161.9164 </r>
       <r>     2.5568     1.5554   161.9994 </r>
       <r>     2.6101     0.0616   162.0027 </r>
       <r>     2.6634     4.9111   162.2645 </r>
       <r>     2.7167    63.4394   165.6468 </r>
       <r>     2.7700   120.2538   172.0583 </r>
       <r>     2.8233    34.9706   173.9228 </r>
       <r>     2.8767     1.4767   174.0016 </r>
       <r>     2.9300     3.8570   174.2072 </r>
       <r>     2.9833    55.0140   177.1403 </r>
       <r>     3.0366   120.7749   183.5796 </r>
       <r>     3.0899    43.0463   185.8747 </r>
       <r>     3.1432     2.3335   185.9991 </r>
       <r>     3.1965     0.0173   186.0000 </r>
       <r>     3.2499     0.0985   186.0053 </r>
       <r>     3.3032     6.6782   186.3613 </r>
       <r>     3.3565    67.0989   189.9388 </r>
       <r>     3.4098   120.6304   196.3703 </r>
       <r>     3.4631    80.6788   200.6718 </r>
       <r>     3.5164    53.4207   203.5200 </r>
       <r>     3.5698     8.7991   203.9892 </r>
       <r>     3.6231     0.3078   204.0056 </r>
       <r>     3.6764     7.8669   204.4250 </r>
       <r>     3.7297    84.5078   208.9306 </r>
       <r>     3.7830   164.5115   217.7018 </r>
       <r>     3.8363    73.1436   221.6015 </r>
       <r>     3.8897     7.3494   221.9934 </r>
       <r>     3.9430     0.2360   222.0060 </r>
       <r>     3.9963     4.0972   222.2244 </r>
       <r>     4.0496    28.0298   223.7188 </r>
       <r>     4.1029    66.3177   227.2547 </r>
       <r>     4.1562    45.8335   229.6983 </r>
       <r>     4.2096     5.5776   229.9957 </r>
       <r>     4.2629     1.6431   230.0833 </r>
       <r>     4.3162    26.3845   231.4900 </r>
       <r>     4.3695    78.2340   235.6612 </r>
       <r>     4.4228    81.9092   240.0283 </r>
       <r>     4.4761    34.7236   241.8796 </r>
       <r>     4.5295    15.2203   242.6911 </r>
       <r>     4.5828    40.4534   244.8479 </r>
       <r>     4.6361    20.1307   245.9212 </r>
       <r>     4.6894     1.4640   245.9993 </r>
       <r>     4.7427     0.0332   246.0010 </r>
       <r>     4.7960     2.0913   246.1125 </r>
       <r>     4.8494    29.4254   247.6814 </r>
       <r>     4.9027    60.7440   250.9200 </r>
       <r>     4.9560    19.3648   251.9525 </r>
       <r>     5.0093     0.8860   251.9997 </r>
       <r>     5.0626     0.0052   252.0000 </r>
       <r>     5.1159     0.0000   252.0000 </r>
       <r>     5.1692     0.0000   252.0000 </r>
       <r>     5.2226     0.0132   252.0007 </r>
       <r>     5.2759     1.4132   252.0761 </r>
       <r>     5.3292    19.7357   253.1283 </r>
       <r>     5.3825    40.4695   255.2860 </r>
       <r>     5.4358    12.8085   255.9689 </r>
       <r>     5.4891     0.5805   255.9998 </r>
       <r>     5.5425     0.0034   256.0000 </r>
       <r>     5.5958     0.0000   256.0000 </r>
       <r>     5.6491     0.0000   256.0000 </r>
       <r>     5.7024     0.0000   256.0000 </r>
       <r>     5.7557     0.0000   256.0000 </r>
       <r>     5.8090     0.0000   256.0000 </r>
       <r>     5.8624     0.0000   256.0000 </r>
       <r>     5.9157     0.0000   256.0000 </r>
       <r>     5.9690     0.0000   256.0000 </r>
       <r>     6.0223     0.0000   256.0000 </r>
       <r>     6.0756     0.0000   256.0000 </r>
       <r>     6.1289     0.0000   256.0000 </r>
       <r>     6.1823     0.0000   256.0000 </r>
       <r>     6.2356     0.0000   256.0000 </r>
       <r>     6.2889     0.0000   256.0000 </r>
       <r>     6.3422     0.0000   256.0000 </r>
       <r>     6.3955     0.0001   256.0000 </r>
       <r>     6.4488     0.0696   256.0037 </r>
       <r>     6.5022     4.6717   256.2528 </r>
       <r>     6.5555    41.5887   258.4701 </r>
       <r>     6.6088    54.9229   261.3984 </r>
       <r>     6.6621    10.9803   261.9839 </r>
       <r>     6.7154     0.3017   261.9999 </r>
       <r>     6.7687     0.0010   262.0000 </r>
       <r>     6.8221     0.0000   262.0000 </r>
       <r>     6.8754     0.0159   262.0008 </r>
       <r>     6.9287     1.8479   262.0994 </r>
       <r>     6.9820    27.8564   263.5846 </r>
       <r>     7.0353    61.1525   266.8450 </r>
       <r>     7.0886    20.6579   267.9464 </r>
       <r>     7.1420     1.1768   268.0091 </r>
       <r>     7.1953     5.0220   268.2769 </r>
       <r>     7.2486    19.6690   269.3256 </r>
       <r>     7.3019    11.6384   269.9461 </r>
       <r>     7.3552     1.0079   269.9998 </r>
       <r>     7.4085     1.1679   270.0621 </r>
       <r>     7.4618    22.2713   271.2495 </r>
       <r>     7.5152    61.6408   274.5360 </r>
       <r>     7.5685    34.2992   276.3647 </r>
       <r>     7.6218    52.2623   279.1511 </r>
       <r>     7.6751    47.0296   281.6585 </r>
       <r>     7.7284    16.8632   282.5576 </r>
       <r>     7.7817    81.0784   286.8804 </r>
       <r>     7.8351   107.6832   292.6217 </r>
       <r>     7.8884    24.9482   293.9518 </r>
       <r>     7.9417     2.3228   294.0757 </r>
       <r>     7.9950    34.7641   295.9292 </r>
       <r>     8.0483   126.0853   302.6516 </r>
       <r>     8.1016    84.5179   307.1577 </r>
       <r>     8.1550    15.0398   307.9596 </r>
       <r>     8.2083     1.5631   308.0429 </r>
       <r>     8.2616    18.6723   309.0385 </r>
       <r>     8.3149    60.7639   312.2782 </r>
       <r>     8.3682    30.1305   313.8846 </r>
       <r>     8.4215     4.5995   314.1298 </r>
       <r>     8.4749    45.0855   316.5336 </r>
       <r>     8.5282   132.5490   323.6007 </r>
       <r>     8.5815    73.5590   327.5225 </r>
       <r>     8.6348     8.7409   327.9886 </r>
       <r>     8.6881     0.2135   328.0000 </r>
       <r>     8.7414     0.0008   328.0000 </r>
       <r>     8.7948     0.0000   328.0000 </r>
       <r>     8.8481     0.0000   328.0000 </r>
       <r>     8.9014     0.0000   328.0000 </r>
       <r>     8.9547     0.0000   328.0000 </r>
       <r>     9.0080     0.0000   328.0000 </r>
       <r>     9.0613     0.0000   328.0000 </r>
       <r>     9.1147     0.0000   328.0000 </r>
       <r>     9.1680     0.0000   328.0000 </r>
       <r>     9.2213     0.0000   328.0000 </r>
       <r>     9.2746     0.0000   328.0000 </r>
      </set>
     </set>
    </array>
   </total>
  </dos>
 </calculation>
 <structure name="finalpos" >
  <crystal>
   <varray name="basis" >
    <v>      10.93252578       0.00000000       0.00000000 </v>
    <v>       0.00000000      10.93252578       0.00000000 </v>
    <v>       0.00000000       0.00000000      10.93252578 </v>
   </varray>
   <i name="volume">   1306.65679237 </i>
   <varray name="rec_basis" >
    <v>       0.09147017       0.00000000       0.00000000 </v>
    <v>       0.00000000       0.09147017       0.00000000 </v>
    <v>       0.00000000       0.00000000       0.09147017 </v>
   </varray>
  </crystal>
  <varray name="positions" >
   <v>       0.44024411       0.43750000       0.43750000 </v>
   <v>       0.93750000       0.43750000       0.43750000 </v>
   <v>       0.43750000       0.93750000       0.43750000 </v>
   <v>       0.93750000       0.93750000       0.43750000 </v>
   <v>       0.43750000       0.43750000       0.93750000 </v>
   <v>       0.93750000       0.43750000       0.93750000 </v>
   <v>       0.43750000       0.93750000       0.93750000 </v>
   <v>       0.93750000       0.93750000       0.93750000 </v>
   <v>       0.43750000       0.18750000       0.18750000 </v>
   <v>       0.93750000       0.18750000       0.18750000 </v>
   <v>       0.43750000       0.68750000       0.18750000 </v>
   <v>       0.93750000       0.68750000       0.18750000 </v>
   <v>       0.43750000       0.18750000       0.68750000 </v>
   <v>       0.93750000       0.18750000       0.68750000 </v>
   <v>       0.43750000       0.68750000       0.68750000 </v>
   <v>       0.93750000       0.68750000       0.68750000 </v>
   <v>       0.18750000       0.43750000       0.18750000 </v>
   <v>       0.68750000       0.43750000       0.18750000 </v>
   <v>       0.18750000       0.93750000       0.18750000 </v>
   <v>       0.68750000       0.93750000       0.18750000 </v>
   <v>       0.18750000       0.43750000       0.68750000 </v>
   <v>       0.68750000       0.43750000       0.68750000 </v>
   <v>       0.18750000       0.93750000       0.68750000 </v>
   <v>       0.68750000       0.93750000       0.68750000 </v>
   <v>       0.18750000       0.18750000       0.43750000 </v>
   <v>       0.68750000       0.18750000       0.43750000 </v>
   <v>       0.18750000       0.68750000       0.43750000 </v>
   <v>       0.68750000       0.68750000       0.43750000 </v>
   <v>       0.18750000       0.18750000       0.93750000 </v>
   <v>       0.68750000       0.18750000       0.93750000 </v>
   <v>       0.18750000       0.68750000       0.93750000 </v>
   <v>       0.68750000       0.68750000       0.93750000 </v>
   <v>       0.06250000       0.06250000       0.06250000 </v>
   <v>       0.56250000       0.06250000       0.06250000 </v>
   <v>       0.06250000       0.56250000       0.06250000 </v>
   <v>       0.56250000       0.56250000       0.06250000 </v>
   <v>       0.06250000       0.06250000       0.56250000 </v>
   <v>       0.56250000       0.06250000       0.56250000 </v>
   <v>       0.06250000       0.56250000       0.56250000 </v>
   <v>       0.56250000       0.56250000       0.56250000 </v>
   <v>       0.06250000       0.31250000       0.31250000 </v>
   <v>       0.56250000       0.31250000       0.31250000 </v>
   <v>       0.06250000       0.81250000       0.31250000 </v>
   <v>       0.56250000       0.81250000       0.31250000 </v>
   <v>       0.06250000       0.31250000       0.81250000 </v>
   <v>       0.56250000       0.31250000       0.81250000 </v>
   <v>       0.06250000       0.81250000       0.81250000 </v>
   <v>       0.56250000       0.81250000       0.81250000 </v>
   <v>       0.31250000       0.06250000       0.31250000 </v>
   <v>       0.81250000       0.06250000       0.31250000 </v>
   <v>       0.31250000       0.56250000       0.31250000 </v>
   <v>       0.81250000       0.56250000       0.31250000 </v>
   <v>       0.31250000       0.05975589       0.81250000 </v>
   <v>       0.81250000       0.06250000       0.81250000 </v>
   <v>       0.31250000       0.56250000       0.81250000 </v>
   <v>       0.81250000       0.56250000       0.81250000 </v>
   <v>       0.31250000       0.31250000       0.06250000 </v>
   <v>       0.81250000       0.31250000       0.06250000 </v>
   <v>       0.31250000       0.81250000       0.06250000 </v>
   <v>       0.81250000       0.81250000       0.06250000 </v>
   <v>       0.31250000       0.31250000       0.56250000 </v>
   <v>       0.81250000       0.31250000       0.56250000 </v>
   <v>       0.31250000       0.81250000       0.56250000 </v>
   <v>       0.81250000       0.81250000       0.56250000 </v>
  </varray>
 </structure>
</modeling>
