
     Program PWSCF v.5.3.0 (svn rev. 11974) starts on  3Feb2016 at 13:31:57 

     This program is part of the open-source Quantum ESPRESSO suite
     for quantum simulation of materials; please cite
         "P. Giannozzi et al., J. Phys.:Condens. Matter 21 395502 (2009);
          URL http://www.quantum-espresso.org", 
     in publications or presentations arising from this work. More details at
     http://www.quantum-espresso.org/quote

     Parallel version (MPI), running on    16 processors
     R & G space division:  proc/nbgrp/npool/nimage =      16
     Reading input from Si.in

     Current dimensions of program PWSCF are:
     Max number of different atomic species (ntypx) = 10
     Max number of k-points (npk) =  40000
     Max angular momentum in pseudopotentials (lmaxx) =  3
               file Si.pbe-n-kjpaw_psl.0.1.UPF: wavefunction(s)  3S renormalized

     Subspace diagonalization in iterative solution of the eigenvalue problem:
     one sub-group per k-point group (pool) will be used
     scalapack distributed-memory algorithm (size of sub-group:  2*  2 procs)

 
     Parallelization info
     --------------------
     sticks:   dense  smooth     PW     G-vecs:    dense   smooth      PW
     Min         424     424    109                26332    26332    3467
     Max         425     425    110                26336    26336    3472
     Sum        6785    6785   1757               421349   421349   55515
 


     bravais-lattice index     =            0
     lattice parameter (alat)  =      20.6591  a.u.
     unit-cell volume          =    8817.2783 (a.u.)^3
     number of atoms/cell      =           64
     number of atomic types    =            1
     number of electrons       =       256.00
     number of Kohn-Sham states=          154
     kinetic-energy cutoff     =      50.0000  Ry
     charge density cutoff     =     200.0000  Ry
     convergence threshold     =      1.0E-09
     mixing beta               =       0.7000
     number of iterations used =            8  plain     mixing
     Exchange-correlation      =  SLA  PW   PBX  PBC ( 1  4  3  4 0 0)

     celldm(1)=  20.659106  celldm(2)=   0.000000  celldm(3)=   0.000000
     celldm(4)=   0.000000  celldm(5)=   0.000000  celldm(6)=   0.000000

     crystal axes: (cart. coord. in units of alat)
               a(1) = (   1.000000   0.000000   0.000000 )  
               a(2) = (   0.000000   1.000000   0.000000 )  
               a(3) = (   0.000000   0.000000   1.000000 )  

     reciprocal axes: (cart. coord. in units 2 pi/alat)
               b(1) = (  1.000000  0.000000  0.000000 )  
               b(2) = (  0.000000  1.000000  0.000000 )  
               b(3) = (  0.000000  0.000000  1.000000 )  


     PseudoPot. # 1 for Si read from file:
     /home/togo/espresso/pseudo/Si.pbe-n-kjpaw_psl.0.1.UPF
     MD5 check sum: b9d333a40e496bef61db012f150758bf
     Pseudo is Projector augmented-wave + core cor, Zval =  4.0
     Generated using "atomic" code by A. Dal Corso  v.5.0.2 svn rev. 9415
     Shape of augmentation charge: PSQ
     Using radial grid of 1141 points,  4 beta functions with: 
                l(1) =   0
                l(2) =   0
                l(3) =   1
                l(4) =   1
     Q(r) pseudized with 0 coefficients 


     atomic species   valence    mass     pseudopotential
        Si             4.00    28.08550     Si( 1.00)

      4 Sym. Ops. (no inversion) found ( 2 have fractional translation)



   Cartesian axes

     site n.     atom                  positions (alat units)
         1           Si  tau(   1) = (   0.4404043   0.4375000   0.4375000  )
         2           Si  tau(   2) = (   0.9375000   0.4375000   0.4375000  )
         3           Si  tau(   3) = (   0.4375000   0.9375000   0.4375000  )
         4           Si  tau(   4) = (   0.9375000   0.9375000   0.4375000  )
         5           Si  tau(   5) = (   0.4375000   0.4375000   0.9375000  )
         6           Si  tau(   6) = (   0.9375000   0.4375000   0.9375000  )
         7           Si  tau(   7) = (   0.4375000   0.9375000   0.9375000  )
         8           Si  tau(   8) = (   0.9375000   0.9375000   0.9375000  )
         9           Si  tau(   9) = (   0.4375000   0.1875000   0.1875000  )
        10           Si  tau(  10) = (   0.9375000   0.1875000   0.1875000  )
        11           Si  tau(  11) = (   0.4375000   0.6875000   0.1875000  )
        12           Si  tau(  12) = (   0.9375000   0.6875000   0.1875000  )
        13           Si  tau(  13) = (   0.4375000   0.1875000   0.6875000  )
        14           Si  tau(  14) = (   0.9375000   0.1875000   0.6875000  )
        15           Si  tau(  15) = (   0.4375000   0.6875000   0.6875000  )
        16           Si  tau(  16) = (   0.9375000   0.6875000   0.6875000  )
        17           Si  tau(  17) = (   0.1875000   0.4375000   0.1875000  )
        18           Si  tau(  18) = (   0.6875000   0.4375000   0.1875000  )
        19           Si  tau(  19) = (   0.1875000   0.9375000   0.1875000  )
        20           Si  tau(  20) = (   0.6875000   0.9375000   0.1875000  )
        21           Si  tau(  21) = (   0.1875000   0.4375000   0.6875000  )
        22           Si  tau(  22) = (   0.6875000   0.4375000   0.6875000  )
        23           Si  tau(  23) = (   0.1875000   0.9375000   0.6875000  )
        24           Si  tau(  24) = (   0.6875000   0.9375000   0.6875000  )
        25           Si  tau(  25) = (   0.1875000   0.1875000   0.4375000  )
        26           Si  tau(  26) = (   0.6875000   0.1875000   0.4375000  )
        27           Si  tau(  27) = (   0.1875000   0.6875000   0.4375000  )
        28           Si  tau(  28) = (   0.6875000   0.6875000   0.4375000  )
        29           Si  tau(  29) = (   0.1875000   0.1875000   0.9375000  )
        30           Si  tau(  30) = (   0.6875000   0.1875000   0.9375000  )
        31           Si  tau(  31) = (   0.1875000   0.6875000   0.9375000  )
        32           Si  tau(  32) = (   0.6875000   0.6875000   0.9375000  )
        33           Si  tau(  33) = (   0.0625000   0.0625000   0.0625000  )
        34           Si  tau(  34) = (   0.5625000   0.0625000   0.0625000  )
        35           Si  tau(  35) = (   0.0625000   0.5625000   0.0625000  )
        36           Si  tau(  36) = (   0.5625000   0.5625000   0.0625000  )
        37           Si  tau(  37) = (   0.0625000   0.0625000   0.5625000  )
        38           Si  tau(  38) = (   0.5625000   0.0625000   0.5625000  )
        39           Si  tau(  39) = (   0.0625000   0.5625000   0.5625000  )
        40           Si  tau(  40) = (   0.5625000   0.5625000   0.5625000  )
        41           Si  tau(  41) = (   0.0625000   0.3125000   0.3125000  )
        42           Si  tau(  42) = (   0.5625000   0.3125000   0.3125000  )
        43           Si  tau(  43) = (   0.0625000   0.8125000   0.3125000  )
        44           Si  tau(  44) = (   0.5625000   0.8125000   0.3125000  )
        45           Si  tau(  45) = (   0.0625000   0.3125000   0.8125000  )
        46           Si  tau(  46) = (   0.5625000   0.3125000   0.8125000  )
        47           Si  tau(  47) = (   0.0625000   0.8125000   0.8125000  )
        48           Si  tau(  48) = (   0.5625000   0.8125000   0.8125000  )
        49           Si  tau(  49) = (   0.3125000   0.0625000   0.3125000  )
        50           Si  tau(  50) = (   0.8125000   0.0625000   0.3125000  )
        51           Si  tau(  51) = (   0.3125000   0.5625000   0.3125000  )
        52           Si  tau(  52) = (   0.8125000   0.5625000   0.3125000  )
        53           Si  tau(  53) = (   0.3125000   0.0625000   0.8125000  )
        54           Si  tau(  54) = (   0.8125000   0.0625000   0.8125000  )
        55           Si  tau(  55) = (   0.3125000   0.5625000   0.8125000  )
        56           Si  tau(  56) = (   0.8125000   0.5625000   0.8125000  )
        57           Si  tau(  57) = (   0.3125000   0.3125000   0.0625000  )
        58           Si  tau(  58) = (   0.8125000   0.3125000   0.0625000  )
        59           Si  tau(  59) = (   0.3125000   0.8125000   0.0625000  )
        60           Si  tau(  60) = (   0.8125000   0.8125000   0.0625000  )
        61           Si  tau(  61) = (   0.3125000   0.3125000   0.5625000  )
        62           Si  tau(  62) = (   0.8125000   0.3125000   0.5625000  )
        63           Si  tau(  63) = (   0.3125000   0.8125000   0.5625000  )
        64           Si  tau(  64) = (   0.8125000   0.8125000   0.5625000  )

     number of k points=     2  gaussian smearing, width (Ry)=  0.0100
                       cart. coord. in units 2pi/alat
        k(    1) = (   0.2500000   0.2500000   0.2500000), wk =   1.0000000
        k(    2) = (   0.2500000   0.2500000  -0.2500000), wk =   1.0000000

     Dense  grid:   421349 G-vectors     FFT dimensions: (  96,  96,  96)

     Largest allocated arrays     est. size (Mb)     dimensions
        Kohn-Sham Wavefunctions         7.68 Mb     (    3267,  154)
        NL pseudopotentials            25.52 Mb     (    3267,  512)
        Each V/rho on FFT grid          0.84 Mb     (   55296)
        Each G-vector array             0.20 Mb     (   26336)
        G-vector shells                 0.01 Mb     (    1719)
     Largest temporary arrays     est. size (Mb)     dimensions
        Auxiliary wavefunctions        30.71 Mb     (    3267,  616)
        Each subspace H/S matrix        1.45 Mb     (     308,  308)
        Each <psi_i|beta_j> matrix      1.20 Mb     (     512,  154)
        Arrays for rho mixing           6.75 Mb     (   55296,    8)

     Check: negative/imaginary core charge=   -0.000001    0.000000

     Initial potential from superposition of free atoms

     starting charge  255.96421, renormalised to  256.00000
     Starting wfc are  256 randomized atomic wfcs
     Checking if some PAW data can be deallocated... 

     total cpu time spent up to now is        5.1 secs

     per-process dynamical memory:   102.1 Mb

     Self-consistent Calculation

     iteration #  1     ecut=    50.00 Ry     beta=0.70
     Davidson diagonalization with overlap
     ethr =  1.00E-02,  avg # of iterations =  3.0

     Threshold (ethr) on eigenvalues was too large:
     Diagonalizing with lowered threshold

     Davidson diagonalization with overlap
     ethr =  7.00E-04,  avg # of iterations =  1.0

     total cpu time spent up to now is       25.0 secs

     total energy              =   -2990.45748522 Ry
     Harris-Foulkes estimate   =   -2990.87663852 Ry
     estimated scf accuracy    <       1.77295150 Ry

     iteration #  2     ecut=    50.00 Ry     beta=0.70
     Davidson diagonalization with overlap
     ethr =  6.93E-04,  avg # of iterations =  1.0

     total cpu time spent up to now is       32.5 secs

     total energy              =   -2990.52411616 Ry
     Harris-Foulkes estimate   =   -2990.52790517 Ry
     estimated scf accuracy    <       0.07628587 Ry

     iteration #  3     ecut=    50.00 Ry     beta=0.70
     Davidson diagonalization with overlap
     ethr =  2.98E-05,  avg # of iterations = 10.0

     total cpu time spent up to now is       48.8 secs

     total energy              =   -2990.53131288 Ry
     Harris-Foulkes estimate   =   -2990.53175429 Ry
     estimated scf accuracy    <       0.00158747 Ry

     iteration #  4     ecut=    50.00 Ry     beta=0.70
     Davidson diagonalization with overlap
     c_bands:  1 eigenvalues not converged
     ethr =  6.20E-07,  avg # of iterations = 12.5

     total cpu time spent up to now is       74.9 secs

     total energy              =   -2990.53176263 Ry
     Harris-Foulkes estimate   =   -2990.53226340 Ry
     estimated scf accuracy    <       0.00136594 Ry

     iteration #  5     ecut=    50.00 Ry     beta=0.70
     Davidson diagonalization with overlap
     ethr =  5.34E-07,  avg # of iterations =  2.5

     total cpu time spent up to now is       84.3 secs

     total energy              =   -2990.53199599 Ry
     Harris-Foulkes estimate   =   -2990.53204262 Ry
     estimated scf accuracy    <       0.00011957 Ry

     iteration #  6     ecut=    50.00 Ry     beta=0.70
     Davidson diagonalization with overlap
     ethr =  4.67E-08,  avg # of iterations =  3.0

     total cpu time spent up to now is       95.0 secs

     total energy              =   -2990.53201737 Ry
     Harris-Foulkes estimate   =   -2990.53204208 Ry
     estimated scf accuracy    <       0.00007928 Ry

     iteration #  7     ecut=    50.00 Ry     beta=0.70
     Davidson diagonalization with overlap
     ethr =  3.10E-08,  avg # of iterations =  2.0

     total cpu time spent up to now is      104.0 secs

     total energy              =   -2990.53202911 Ry
     Harris-Foulkes estimate   =   -2990.53202968 Ry
     estimated scf accuracy    <       0.00000142 Ry

     iteration #  8     ecut=    50.00 Ry     beta=0.70
     Davidson diagonalization with overlap
     ethr =  5.54E-10,  avg # of iterations =  3.0

     total cpu time spent up to now is      117.9 secs

     total energy              =   -2990.53202980 Ry
     Harris-Foulkes estimate   =   -2990.53202996 Ry
     estimated scf accuracy    <       0.00000032 Ry

     iteration #  9     ecut=    50.00 Ry     beta=0.70
     Davidson diagonalization with overlap
     ethr =  1.24E-10,  avg # of iterations =  2.0

     total cpu time spent up to now is      127.4 secs

     total energy              =   -2990.53202977 Ry
     Harris-Foulkes estimate   =   -2990.53202986 Ry
     estimated scf accuracy    <       0.00000010 Ry

     iteration # 10     ecut=    50.00 Ry     beta=0.70
     Davidson diagonalization with overlap
     ethr =  4.07E-11,  avg # of iterations =  3.0

     total cpu time spent up to now is      137.4 secs

     total energy              =   -2990.53202976 Ry
     Harris-Foulkes estimate   =   -2990.53202980 Ry
     estimated scf accuracy    <       0.00000004 Ry

     iteration # 11     ecut=    50.00 Ry     beta=0.70
     Davidson diagonalization with overlap
     ethr =  1.48E-11,  avg # of iterations =  2.0

     total cpu time spent up to now is      146.8 secs

     total energy              =   -2990.53202977 Ry
     Harris-Foulkes estimate   =   -2990.53202976 Ry
     estimated scf accuracy    <          1.8E-09 Ry

     iteration # 12     ecut=    50.00 Ry     beta=0.70
     Davidson diagonalization with overlap
     ethr =  7.04E-13,  avg # of iterations =  3.0

     total cpu time spent up to now is      160.2 secs

     total energy              =   -2990.53202977 Ry
     Harris-Foulkes estimate   =   -2990.53202977 Ry
     estimated scf accuracy    <          2.1E-09 Ry

     iteration # 13     ecut=    50.00 Ry     beta=0.70
     Davidson diagonalization with overlap
     ethr =  7.04E-13,  avg # of iterations =  2.0

     total cpu time spent up to now is      169.9 secs

     End of self-consistent calculation

          k = 0.2500 0.2500 0.2500 ( 52563 PWs)   bands (ev):

    -5.6249  -5.0991  -5.0954  -5.0944  -4.5994  -4.5957  -4.5948  -4.1624
    -4.0659  -4.0624  -4.0610  -3.6549  -3.6472  -3.6470  -3.6464  -3.6443
    -3.6436  -3.4585  -3.4535  -3.4533  -2.9604  -2.9574  -2.9548  -2.5931
    -2.5878  -2.5873  -2.4281  -2.4212  -2.4208  -2.4202  -2.4176  -2.4176
    -0.8854  -0.8783  -0.8780  -0.8775  -0.8742  -0.8741  -0.7836  -0.7785
    -0.7778  -0.6648  -0.6615  -0.6579  -0.5834  -0.5764  -0.5751   0.1245
     0.2046   0.2104   0.2106   0.2112   0.2154   0.2168   1.0799   1.0856
     1.0871   1.4154   1.4195   1.4202   2.0256   2.0280   2.0292   2.0294
     2.0308   2.0325   2.0867   2.0893   2.0903   2.6372   2.6401   2.6403
     2.7408   2.7411   2.7433   2.7434   2.7468   2.7480   2.7945   2.7982
     2.7998   3.1024   3.1068   3.1076   3.1081   3.1089   3.1113   3.3712
     3.3723   3.3739   3.3837   3.3881   3.3883   3.7308   3.7350   3.7356
     3.7517   3.7561   3.7567   3.8383   3.8396   3.8423   4.1060   4.1116
     4.1142   4.1147   4.1149   4.1160   4.1523   4.1536   4.1568   4.4110
     4.4708   4.4711   4.4743   4.7135   4.7147   4.7183   4.7724   4.7781
     4.7787   4.9343   4.9393   5.2424   5.2436   5.2486   5.7222   5.7280
     6.9345   6.9381   6.9389   7.3742   7.3768   7.3807   7.5996   7.8600
     7.8627   7.8657   7.9891   7.9899   7.9944   8.1502   8.1509   8.1542
     8.1674   8.1689   8.1721   8.3962   8.3989   8.4026   8.4026   8.4033
     8.4058   8.4492

          k = 0.2500 0.2500-0.2500 ( 52563 PWs)   bands (ev):

    -5.6250  -5.0981  -5.0970  -5.0935  -4.5986  -4.5974  -4.5940  -4.1635
    -4.0655  -4.0641  -4.0608  -3.6504  -3.6496  -3.6475  -3.6469  -3.6466
    -3.6394  -3.4563  -3.4561  -3.4509  -2.9622  -2.9595  -2.9566  -2.5909
    -2.5906  -2.5855  -2.4241  -2.4238  -2.4214  -2.4208  -2.4204  -2.4132
    -0.8825  -0.8822  -0.8785  -0.8780  -0.8778  -0.8714  -0.7831  -0.7823
    -0.7771  -0.6664  -0.6633  -0.6598  -0.5773  -0.5760  -0.5686   0.1282
     0.2050   0.2060   0.2103   0.2109   0.2110   0.2169   1.0836   1.0853
     1.0909   1.4164   1.4173   1.4212   2.0257   2.0277   2.0291   2.0294
     2.0304   2.0325   2.0860   2.0868   2.0900   2.6400   2.6403   2.6431
     2.7383   2.7392   2.7433   2.7434   2.7455   2.7458   2.7932   2.7945
     2.7981   3.1040   3.1063   3.1071   3.1075   3.1084   3.1126   3.3693
     3.3718   3.3726   3.3840   3.3843   3.3882   3.7342   3.7347   3.7383
     3.7558   3.7569   3.7614   3.8366   3.8393   3.8409   4.1126   4.1138
     4.1139   4.1143   4.1168   4.1224   4.1502   4.1532   4.1555   4.4151
     4.4673   4.4706   4.4714   4.7108   4.7142   4.7153   4.7787   4.7792
     4.7859   4.9330   4.9381   5.2385   5.2431   5.2447   5.7199   5.7255
     6.9337   6.9345   6.9382   7.3729   7.3769   7.3795   7.5980   7.8581
     7.8613   7.8640   7.9892   7.9939   7.9945   8.1484   8.1524   8.1531
     8.1665   8.1691   8.1707   8.3986   8.4019   8.4025   8.4026   8.4062
     8.4085   8.4468

     the Fermi energy is     6.3265 ev

!    total energy              =   -2990.53202977 Ry
     Harris-Foulkes estimate   =   -2990.53202977 Ry
     estimated scf accuracy    <          1.5E-10 Ry

     total all-electron energy =    -37124.667583 Ry

     The total energy is the sum of the following terms:

     one-electron contribution =     178.60857177 Ry
     hartree contribution      =      35.70050514 Ry
     xc contribution           =    -391.44191894 Ry
     ewald contribution        =    -534.00795653 Ry
     one-center paw contrib.   =   -2279.39123121 Ry
     smearing contrib. (-TS)   =       0.00000000 Ry

     convergence has been achieved in  13 iterations

     Forces acting on atoms (Ry/au):

     atom    1 type  1   force =    -0.01589027    0.00000000    0.00000000
     atom    2 type  1   force =     0.00002163    0.00000000    0.00000000
     atom    3 type  1   force =     0.00005510    0.00000000    0.00000000
     atom    4 type  1   force =    -0.00000748    0.00000000    0.00000000
     atom    5 type  1   force =     0.00005510    0.00000000    0.00000000
     atom    6 type  1   force =    -0.00000748    0.00000000    0.00000000
     atom    7 type  1   force =    -0.00047470    0.00000000    0.00000000
     atom    8 type  1   force =     0.00002391    0.00000000    0.00000000
     atom    9 type  1   force =    -0.00052786    0.00011395    0.00011395
     atom   10 type  1   force =    -0.00000068    0.00000944    0.00000944
     atom   11 type  1   force =    -0.00052333    0.00010958   -0.00010958
     atom   12 type  1   force =    -0.00000001    0.00000960   -0.00000960
     atom   13 type  1   force =    -0.00052333   -0.00010958    0.00010958
     atom   14 type  1   force =    -0.00000001   -0.00000960    0.00000960
     atom   15 type  1   force =    -0.00052786   -0.00011395   -0.00011395
     atom   16 type  1   force =    -0.00000068   -0.00000944   -0.00000944
     atom   17 type  1   force =     0.00023163   -0.00011000    0.00022718
     atom   18 type  1   force =     0.00023828   -0.00011408   -0.00023299
     atom   19 type  1   force =     0.00004292   -0.00000923   -0.00007705
     atom   20 type  1   force =     0.00004273   -0.00000946    0.00007647
     atom   21 type  1   force =     0.00023163    0.00011000   -0.00022718
     atom   22 type  1   force =     0.00023828    0.00011408    0.00023299
     atom   23 type  1   force =     0.00004292    0.00000923    0.00007705
     atom   24 type  1   force =     0.00004273    0.00000946   -0.00007647
     atom   25 type  1   force =     0.00023163    0.00022718   -0.00011000
     atom   26 type  1   force =     0.00023828   -0.00023299   -0.00011408
     atom   27 type  1   force =     0.00023163   -0.00022718    0.00011000
     atom   28 type  1   force =     0.00023828    0.00023299    0.00011408
     atom   29 type  1   force =     0.00004292   -0.00007705   -0.00000923
     atom   30 type  1   force =     0.00004273    0.00007647   -0.00000946
     atom   31 type  1   force =     0.00004292    0.00007705    0.00000923
     atom   32 type  1   force =     0.00004273   -0.00007647    0.00000946
     atom   33 type  1   force =    -0.00002133    0.00003135    0.00003135
     atom   34 type  1   force =     0.00025616    0.00002801    0.00002801
     atom   35 type  1   force =     0.00002594    0.00002638    0.00002476
     atom   36 type  1   force =    -0.00006013    0.00005005    0.00003847
     atom   37 type  1   force =     0.00002594    0.00002476    0.00002638
     atom   38 type  1   force =    -0.00006013    0.00003847    0.00005005
     atom   39 type  1   force =    -0.00001299    0.00003839    0.00003839
     atom   40 type  1   force =     0.00392961    0.00270522    0.00270522
     atom   41 type  1   force =    -0.00001299   -0.00003839   -0.00003839
     atom   42 type  1   force =     0.00392961   -0.00270522   -0.00270522
     atom   43 type  1   force =     0.00002594   -0.00002476   -0.00002638
     atom   44 type  1   force =    -0.00006013   -0.00003847   -0.00005005
     atom   45 type  1   force =     0.00002594   -0.00002638   -0.00002476
     atom   46 type  1   force =    -0.00006013   -0.00005005   -0.00003847
     atom   47 type  1   force =    -0.00002133   -0.00003135   -0.00003135
     atom   48 type  1   force =     0.00025616   -0.00002801   -0.00002801
     atom   49 type  1   force =    -0.00005835   -0.00003736    0.00005138
     atom   50 type  1   force =     0.00002778   -0.00002677    0.00002907
     atom   51 type  1   force =     0.00381246   -0.00248180    0.00248180
     atom   52 type  1   force =    -0.00001268   -0.00003802    0.00003802
     atom   53 type  1   force =     0.00025308   -0.00002776    0.00002776
     atom   54 type  1   force =    -0.00002193   -0.00003081    0.00003081
     atom   55 type  1   force =    -0.00005835   -0.00005138    0.00003736
     atom   56 type  1   force =     0.00002778   -0.00002907    0.00002677
     atom   57 type  1   force =    -0.00005835    0.00005138   -0.00003736
     atom   58 type  1   force =     0.00002778    0.00002907   -0.00002677
     atom   59 type  1   force =     0.00025308    0.00002776   -0.00002776
     atom   60 type  1   force =    -0.00002193    0.00003081   -0.00003081
     atom   61 type  1   force =     0.00381246    0.00248180   -0.00248180
     atom   62 type  1   force =    -0.00001268    0.00003802   -0.00003802
     atom   63 type  1   force =    -0.00005835    0.00003736   -0.00005138
     atom   64 type  1   force =     0.00002778    0.00002677   -0.00002907

     Total force =     0.019214     Total SCF correction =     0.000024

     Writing output data file pwscf.save
 
     init_run     :      4.82s CPU      4.96s WALL (       1 calls)
     electrons    :    161.68s CPU    164.93s WALL (       1 calls)
     forces       :      2.57s CPU      2.69s WALL (       1 calls)

     Called by init_run:
     wfcinit      :      4.28s CPU      4.33s WALL (       1 calls)
     potinit      :      0.22s CPU      0.22s WALL (       1 calls)

     Called by electrons:
     c_bands      :    143.74s CPU    146.68s WALL (      14 calls)
     sum_band     :     13.63s CPU     13.79s WALL (      14 calls)
     v_of_rho     :      0.62s CPU      0.62s WALL (      14 calls)
     newd         :      1.47s CPU      1.49s WALL (      14 calls)
     PAW_pot      :      2.13s CPU      2.13s WALL (      14 calls)
     mix_rho      :      0.25s CPU      0.25s WALL (      14 calls)

     Called by c_bands:
     init_us_2    :      0.56s CPU      0.57s WALL (      60 calls)
     cegterg      :    141.57s CPU    144.46s WALL (      28 calls)

     Called by sum_band:
     sum_band:bec :      0.03s CPU      0.03s WALL (      28 calls)
     addusdens    :      1.58s CPU      1.73s WALL (      14 calls)

     Called by *egterg:
     h_psi        :     61.45s CPU     61.59s WALL (     130 calls)
     s_psi        :     16.61s CPU     16.62s WALL (     130 calls)
     g_psi        :      0.53s CPU      0.54s WALL (     100 calls)
     cdiaghg      :     21.24s CPU     21.24s WALL (     126 calls)

     Called by h_psi:
     add_vuspsi   :     16.52s CPU     16.52s WALL (     130 calls)

     General routines
     calbec       :     24.88s CPU     24.89s WALL (     166 calls)
     fft          :      0.40s CPU      0.41s WALL (     195 calls)
     fftw         :     28.68s CPU     28.81s WALL (   28134 calls)
     davcio       :      0.00s CPU      0.03s WALL (       2 calls)
 
     Parallel routines
     fft_scatter  :      7.88s CPU      7.63s WALL (   28329 calls)
 
     PWSCF        :  2m49.34s CPU     2m57.38s WALL

 
   This run was terminated on:  13:34:54   3Feb2016            

=------------------------------------------------------------------------------=
   JOB DONE.
=------------------------------------------------------------------------------=
