
     Program PWSCF v.5.3.0 (svn rev. 11974) starts on  3Feb2016 at 13:51:53 

     This program is part of the open-source Quantum ESPRESSO suite
     for quantum simulation of materials; please cite
         "P. Giannozzi et al., J. Phys.:Condens. Matter 21 395502 (2009);
          URL http://www.quantum-espresso.org", 
     in publications or presentations arising from this work. More details at
     http://www.quantum-espresso.org/quote

     Parallel version (MPI), running on    16 processors
     R & G space division:  proc/nbgrp/npool/nimage =      16
     Reading input from Si.in

     Current dimensions of program PWSCF are:
     Max number of different atomic species (ntypx) = 10
     Max number of k-points (npk) =  40000
     Max angular momentum in pseudopotentials (lmaxx) =  3
               file Si.pbe-n-kjpaw_psl.0.1.UPF: wavefunction(s)  3S renormalized

     Subspace diagonalization in iterative solution of the eigenvalue problem:
     one sub-group per k-point group (pool) will be used
     scalapack distributed-memory algorithm (size of sub-group:  2*  2 procs)

 
     Parallelization info
     --------------------
     sticks:   dense  smooth     PW     G-vecs:    dense   smooth      PW
     Min         424     424    109                26332    26332    3467
     Max         425     425    110                26336    26336    3472
     Sum        6785    6785   1757               421349   421349   55515
 


     bravais-lattice index     =            0
     lattice parameter (alat)  =      20.6591  a.u.
     unit-cell volume          =    8817.2783 (a.u.)^3
     number of atoms/cell      =           64
     number of atomic types    =            1
     number of electrons       =       256.00
     number of Kohn-Sham states=          154
     kinetic-energy cutoff     =      50.0000  Ry
     charge density cutoff     =     200.0000  Ry
     convergence threshold     =      1.0E-09
     mixing beta               =       0.7000
     number of iterations used =            8  plain     mixing
     Exchange-correlation      =  SLA  PW   PBX  PBC ( 1  4  3  4 0 0)

     celldm(1)=  20.659106  celldm(2)=   0.000000  celldm(3)=   0.000000
     celldm(4)=   0.000000  celldm(5)=   0.000000  celldm(6)=   0.000000

     crystal axes: (cart. coord. in units of alat)
               a(1) = (   1.000000   0.000000   0.000000 )  
               a(2) = (   0.000000   1.000000   0.000000 )  
               a(3) = (   0.000000   0.000000   1.000000 )  

     reciprocal axes: (cart. coord. in units 2 pi/alat)
               b(1) = (  1.000000  0.000000  0.000000 )  
               b(2) = (  0.000000  1.000000  0.000000 )  
               b(3) = (  0.000000  0.000000  1.000000 )  


     PseudoPot. # 1 for Si read from file:
     /home/togo/espresso/pseudo/Si.pbe-n-kjpaw_psl.0.1.UPF
     MD5 check sum: b9d333a40e496bef61db012f150758bf
     Pseudo is Projector augmented-wave + core cor, Zval =  4.0
     Generated using "atomic" code by A. Dal Corso  v.5.0.2 svn rev. 9415
     Shape of augmentation charge: PSQ
     Using radial grid of 1141 points,  4 beta functions with: 
                l(1) =   0
                l(2) =   0
                l(3) =   1
                l(4) =   1
     Q(r) pseudized with 0 coefficients 


     atomic species   valence    mass     pseudopotential
        Si             4.00    28.08550     Si( 1.00)

      2 Sym. Ops. (no inversion) found ( 1 have fractional translation)



   Cartesian axes

     site n.     atom                  positions (alat units)
         1           Si  tau(   1) = (   0.4404043   0.4375000   0.4375000  )
         2           Si  tau(   2) = (   0.9375000   0.4375000   0.4375000  )
         3           Si  tau(   3) = (   0.4375000   0.9375000   0.4375000  )
         4           Si  tau(   4) = (   0.9375000   0.9375000   0.4375000  )
         5           Si  tau(   5) = (   0.4375000   0.4375000   0.9375000  )
         6           Si  tau(   6) = (   0.9375000   0.4375000   0.9375000  )
         7           Si  tau(   7) = (   0.4375000   0.9375000   0.9375000  )
         8           Si  tau(   8) = (   0.9375000   0.9375000   0.9375000  )
         9           Si  tau(   9) = (   0.4375000   0.1875000   0.1875000  )
        10           Si  tau(  10) = (   0.9375000   0.1875000   0.1875000  )
        11           Si  tau(  11) = (   0.4375000   0.6875000   0.1875000  )
        12           Si  tau(  12) = (   0.9375000   0.6875000   0.1875000  )
        13           Si  tau(  13) = (   0.4375000   0.1875000   0.6875000  )
        14           Si  tau(  14) = (   0.9375000   0.1875000   0.6875000  )
        15           Si  tau(  15) = (   0.4375000   0.6875000   0.6875000  )
        16           Si  tau(  16) = (   0.9375000   0.6875000   0.6875000  )
        17           Si  tau(  17) = (   0.1875000   0.4375000   0.1875000  )
        18           Si  tau(  18) = (   0.6875000   0.4375000   0.1875000  )
        19           Si  tau(  19) = (   0.1875000   0.9375000   0.1875000  )
        20           Si  tau(  20) = (   0.6875000   0.9375000   0.1875000  )
        21           Si  tau(  21) = (   0.1875000   0.4375000   0.6875000  )
        22           Si  tau(  22) = (   0.6875000   0.4375000   0.6875000  )
        23           Si  tau(  23) = (   0.1875000   0.9375000   0.6875000  )
        24           Si  tau(  24) = (   0.6875000   0.9375000   0.6875000  )
        25           Si  tau(  25) = (   0.1875000   0.1875000   0.4375000  )
        26           Si  tau(  26) = (   0.6875000   0.1875000   0.4375000  )
        27           Si  tau(  27) = (   0.1875000   0.6875000   0.4375000  )
        28           Si  tau(  28) = (   0.6875000   0.6875000   0.4375000  )
        29           Si  tau(  29) = (   0.1875000   0.1875000   0.9375000  )
        30           Si  tau(  30) = (   0.6875000   0.1875000   0.9375000  )
        31           Si  tau(  31) = (   0.1875000   0.6875000   0.9375000  )
        32           Si  tau(  32) = (   0.6875000   0.6875000   0.9375000  )
        33           Si  tau(  33) = (   0.0625000   0.0625000   0.0625000  )
        34           Si  tau(  34) = (   0.5625000   0.0625000   0.0625000  )
        35           Si  tau(  35) = (   0.0625000   0.5625000   0.0625000  )
        36           Si  tau(  36) = (   0.5625000   0.5625000   0.0625000  )
        37           Si  tau(  37) = (   0.0625000   0.0625000   0.5625000  )
        38           Si  tau(  38) = (   0.5625000   0.0625000   0.5625000  )
        39           Si  tau(  39) = (   0.0625000   0.5625000   0.5625000  )
        40           Si  tau(  40) = (   0.5625000   0.5625000   0.5625000  )
        41           Si  tau(  41) = (   0.0625000   0.3125000   0.3125000  )
        42           Si  tau(  42) = (   0.5625000   0.3125000   0.3125000  )
        43           Si  tau(  43) = (   0.0625000   0.8125000   0.3125000  )
        44           Si  tau(  44) = (   0.5625000   0.8125000   0.3125000  )
        45           Si  tau(  45) = (   0.0625000   0.3125000   0.8125000  )
        46           Si  tau(  46) = (   0.5625000   0.3125000   0.8125000  )
        47           Si  tau(  47) = (   0.0625000   0.8125000   0.8125000  )
        48           Si  tau(  48) = (   0.5625000   0.8125000   0.8125000  )
        49           Si  tau(  49) = (   0.3125000   0.0625000   0.3125000  )
        50           Si  tau(  50) = (   0.8125000   0.0625000   0.3125000  )
        51           Si  tau(  51) = (   0.3125000   0.5625000   0.3125000  )
        52           Si  tau(  52) = (   0.8125000   0.5625000   0.3125000  )
        53           Si  tau(  53) = (   0.3125000   0.0625000   0.8125000  )
        54           Si  tau(  54) = (   0.8154043   0.0625000   0.8125000  )
        55           Si  tau(  55) = (   0.3125000   0.5625000   0.8125000  )
        56           Si  tau(  56) = (   0.8125000   0.5625000   0.8125000  )
        57           Si  tau(  57) = (   0.3125000   0.3125000   0.0625000  )
        58           Si  tau(  58) = (   0.8125000   0.3125000   0.0625000  )
        59           Si  tau(  59) = (   0.3125000   0.8125000   0.0625000  )
        60           Si  tau(  60) = (   0.8125000   0.8125000   0.0625000  )
        61           Si  tau(  61) = (   0.3125000   0.3125000   0.5625000  )
        62           Si  tau(  62) = (   0.8125000   0.3125000   0.5625000  )
        63           Si  tau(  63) = (   0.3125000   0.8125000   0.5625000  )
        64           Si  tau(  64) = (   0.8125000   0.8125000   0.5625000  )

     number of k points=     3  gaussian smearing, width (Ry)=  0.0100
                       cart. coord. in units 2pi/alat
        k(    1) = (   0.2500000   0.2500000   0.2500000), wk =   1.0000000
        k(    2) = (  -0.2500000   0.2500000  -0.2500000), wk =   0.5000000
        k(    3) = (   0.2500000   0.2500000  -0.2500000), wk =   0.5000000

     Dense  grid:   421349 G-vectors     FFT dimensions: (  96,  96,  96)

     Largest allocated arrays     est. size (Mb)     dimensions
        Kohn-Sham Wavefunctions         7.72 Mb     (    3285,  154)
        NL pseudopotentials            25.66 Mb     (    3285,  512)
        Each V/rho on FFT grid          0.84 Mb     (   55296)
        Each G-vector array             0.20 Mb     (   26336)
        G-vector shells                 0.01 Mb     (    1719)
     Largest temporary arrays     est. size (Mb)     dimensions
        Auxiliary wavefunctions        30.88 Mb     (    3285,  616)
        Each subspace H/S matrix        1.45 Mb     (     308,  308)
        Each <psi_i|beta_j> matrix      1.20 Mb     (     512,  154)
        Arrays for rho mixing           6.75 Mb     (   55296,    8)

     Check: negative/imaginary core charge=   -0.000001    0.000000

     Initial potential from superposition of free atoms

     starting charge  255.96421, renormalised to  256.00000
     Starting wfc are  256 randomized atomic wfcs
     Checking if some PAW data can be deallocated... 

     total cpu time spent up to now is        7.7 secs

     per-process dynamical memory:   116.7 Mb

     Self-consistent Calculation

     iteration #  1     ecut=    50.00 Ry     beta=0.70
     Davidson diagonalization with overlap
     ethr =  1.00E-02,  avg # of iterations =  3.0

     Threshold (ethr) on eigenvalues was too large:
     Diagonalizing with lowered threshold

     Davidson diagonalization with overlap
     ethr =  7.00E-04,  avg # of iterations =  1.0

     total cpu time spent up to now is       39.6 secs

     total energy              =   -2990.45695930 Ry
     Harris-Foulkes estimate   =   -2990.87639144 Ry
     estimated scf accuracy    <       1.77315563 Ry

     iteration #  2     ecut=    50.00 Ry     beta=0.70
     Davidson diagonalization with overlap
     ethr =  6.93E-04,  avg # of iterations =  1.0

     total cpu time spent up to now is       52.8 secs

     total energy              =   -2990.52362615 Ry
     Harris-Foulkes estimate   =   -2990.52744570 Ry
     estimated scf accuracy    <       0.07629014 Ry

     iteration #  3     ecut=    50.00 Ry     beta=0.70
     Davidson diagonalization with overlap
     ethr =  2.98E-05,  avg # of iterations = 11.0

     total cpu time spent up to now is       76.8 secs

     total energy              =   -2990.53076516 Ry
     Harris-Foulkes estimate   =   -2990.53131852 Ry
     estimated scf accuracy    <       0.00170833 Ry

     iteration #  4     ecut=    50.00 Ry     beta=0.70
     Davidson diagonalization with overlap
     ethr =  6.67E-07,  avg # of iterations =  7.7

     total cpu time spent up to now is      107.1 secs

     total energy              =   -2990.53102242 Ry
     Harris-Foulkes estimate   =   -2990.53205936 Ry
     estimated scf accuracy    <       0.00299806 Ry

     iteration #  5     ecut=    50.00 Ry     beta=0.70
     Davidson diagonalization with overlap
     ethr =  6.67E-07,  avg # of iterations =  3.0

     total cpu time spent up to now is      120.9 secs

     total energy              =   -2990.53150270 Ry
     Harris-Foulkes estimate   =   -2990.53157479 Ry
     estimated scf accuracy    <       0.00019314 Ry

     iteration #  6     ecut=    50.00 Ry     beta=0.70
     Davidson diagonalization with overlap
     ethr =  7.54E-08,  avg # of iterations =  3.0

     total cpu time spent up to now is      134.3 secs

     total energy              =   -2990.53153950 Ry
     Harris-Foulkes estimate   =   -2990.53156144 Ry
     estimated scf accuracy    <       0.00006790 Ry

     iteration #  7     ecut=    50.00 Ry     beta=0.70
     Davidson diagonalization with overlap
     ethr =  2.65E-08,  avg # of iterations =  2.0

     total cpu time spent up to now is      147.5 secs

     total energy              =   -2990.53155032 Ry
     Harris-Foulkes estimate   =   -2990.53155127 Ry
     estimated scf accuracy    <       0.00000215 Ry

     iteration #  8     ecut=    50.00 Ry     beta=0.70
     Davidson diagonalization with overlap
     ethr =  8.39E-10,  avg # of iterations =  3.0

     total cpu time spent up to now is      164.4 secs

     total energy              =   -2990.53155121 Ry
     Harris-Foulkes estimate   =   -2990.53155139 Ry
     estimated scf accuracy    <       0.00000039 Ry

     iteration #  9     ecut=    50.00 Ry     beta=0.70
     Davidson diagonalization with overlap
     ethr =  1.53E-10,  avg # of iterations =  2.3

     total cpu time spent up to now is      177.4 secs

     total energy              =   -2990.53155119 Ry
     Harris-Foulkes estimate   =   -2990.53155130 Ry
     estimated scf accuracy    <       0.00000018 Ry

     iteration # 10     ecut=    50.00 Ry     beta=0.70
     Davidson diagonalization with overlap
     ethr =  7.01E-11,  avg # of iterations =  2.0

     total cpu time spent up to now is      189.4 secs

     total energy              =   -2990.53155118 Ry
     Harris-Foulkes estimate   =   -2990.53155123 Ry
     estimated scf accuracy    <       0.00000003 Ry

     iteration # 11     ecut=    50.00 Ry     beta=0.70
     Davidson diagonalization with overlap
     ethr =  1.31E-11,  avg # of iterations =  2.0

     total cpu time spent up to now is      202.4 secs

     total energy              =   -2990.53155119 Ry
     Harris-Foulkes estimate   =   -2990.53155119 Ry
     estimated scf accuracy    <          2.0E-09 Ry

     iteration # 12     ecut=    50.00 Ry     beta=0.70
     Davidson diagonalization with overlap
     ethr =  7.65E-13,  avg # of iterations =  3.0

     total cpu time spent up to now is      221.2 secs

     total energy              =   -2990.53155119 Ry
     Harris-Foulkes estimate   =   -2990.53155119 Ry
     estimated scf accuracy    <          2.2E-09 Ry

     iteration # 13     ecut=    50.00 Ry     beta=0.70
     Davidson diagonalization with overlap
     ethr =  7.65E-13,  avg # of iterations =  2.0

     total cpu time spent up to now is      234.1 secs

     End of self-consistent calculation

          k = 0.2500 0.2500 0.2500 ( 52563 PWs)   bands (ev):

    -5.6250  -5.1005  -5.0963  -5.0922  -4.6007  -4.5967  -4.5929  -4.1631
    -4.0675  -4.0633  -4.0593  -3.6561  -3.6493  -3.6470  -3.6469  -3.6447
    -3.6382  -3.4601  -3.4549  -3.4495  -2.9621  -2.9586  -2.9551  -2.5944
    -2.5892  -2.5841  -2.4296  -2.4226  -2.4210  -2.4206  -2.4188  -2.4119
    -0.8862  -0.8804  -0.8782  -0.8780  -0.8765  -0.8706  -0.7851  -0.7804
    -0.7759  -0.6657  -0.6623  -0.6586  -0.5816  -0.5762  -0.5702   0.1262
     0.2032   0.2092   0.2103   0.2111   0.2126   0.2183   1.0804   1.0854
     1.0903   1.4168   1.4184   1.4198   2.0247   2.0262   2.0290   2.0296
     2.0318   2.0329   2.0869   2.0885   2.0901   2.6377   2.6401   2.6424
     2.7383   2.7410   2.7428   2.7434   2.7450   2.7470   2.7934   2.7972
     2.8002   3.1022   3.1051   3.1068   3.1083   3.1101   3.1129   3.3694
     3.3717   3.3733   3.3850   3.3867   3.3877   3.7307   3.7347   3.7380
     3.7517   3.7566   3.7616   3.8376   3.8394   3.8415   4.1051   4.1115
     4.1140   4.1145   4.1169   4.1232   4.1516   4.1535   4.1562   4.4130
     4.4685   4.4710   4.4736   4.7125   4.7144   4.7166   4.7747   4.7787
     4.7835   4.9358   4.9363   5.2410   5.2435   5.2466   5.7239   5.7241
     6.9322   6.9362   6.9402   7.3721   7.3768   7.3813   7.5987   7.8580
     7.8620   7.8656   7.9869   7.9916   7.9963   8.1473   8.1516   8.1548
     8.1661   8.1692   8.1728   8.3953   8.3983   8.4023   8.4026   8.4065
     8.4089   8.4483

          k =-0.2500 0.2500-0.2500 ( 52563 PWs)   bands (ev):

    -5.6250  -5.1010  -5.0962  -5.0919  -4.6011  -4.5966  -4.5925  -4.1631
    -4.0682  -4.0633  -4.0586  -3.6577  -3.6492  -3.6470  -3.6469  -3.6447
    -3.6368  -3.4572  -3.4549  -3.4523  -2.9633  -2.9585  -2.9538  -2.5942
    -2.5892  -2.5844  -2.4287  -2.4236  -2.4208  -2.4207  -2.4182  -2.4127
    -0.8834  -0.8817  -0.8785  -0.8780  -0.8747  -0.8737  -0.7862  -0.7805
    -0.7745  -0.6650  -0.6623  -0.6593  -0.5770  -0.5762  -0.5750   0.1263
     0.2035   0.2065   0.2107   0.2109   0.2148   0.2184   1.0841   1.0853
     1.0866   1.4167   1.4182   1.4201   2.0237   2.0282   2.0291   2.0292
     2.0301   2.0338   2.0882   2.0882   2.0892   2.6375   2.6402   2.6427
     2.7370   2.7414   2.7431   2.7433   2.7436   2.7491   2.7937   2.7976
     2.7993   3.1015   3.1070   3.1075   3.1076   3.1080   3.1137   3.3717
     3.3719   3.3721   3.3844   3.3860   3.3880   3.7314   3.7348   3.7367
     3.7540   3.7564   3.7601   3.8384   3.8395   3.8403   4.1099   4.1125
     4.1138   4.1143   4.1157   4.1192   4.1528   4.1543   4.1545   4.4127
     4.4706   4.4709   4.4717   4.7134   4.7147   4.7154   4.7782   4.7787
     4.7799   4.9363   4.9364   5.2427   5.2438   5.2445   5.7240   5.7241
     6.9357   6.9363   6.9367   7.3746   7.3767   7.3788   7.5988   7.8598
     7.8620   7.8640   7.9884   7.9918   7.9948   8.1475   8.1514   8.1547
     8.1688   8.1691   8.1699   8.3967   8.3997   8.4024   8.4025   8.4053
     8.4071   8.4484

          k = 0.2500 0.2500-0.2500 ( 52563 PWs)   bands (ev):

    -5.6250  -5.0996  -5.0962  -5.0933  -4.6000  -4.5966  -4.5936  -4.1632
    -4.0670  -4.0633  -4.0597  -3.6497  -3.6494  -3.6471  -3.6469  -3.6450
    -3.6446  -3.4548  -3.4548  -3.4544  -2.9639  -2.9585  -2.9533  -2.5898
    -2.5892  -2.5891  -2.4238  -2.4217  -2.4208  -2.4208  -2.4192  -2.4179
    -0.8819  -0.8798  -0.8786  -0.8780  -0.8774  -0.8745  -0.7806  -0.7804
    -0.7798  -0.6623  -0.6623  -0.6620  -0.5802  -0.5763  -0.5718   0.1264
     0.2060   0.2078   0.2107   0.2107   0.2140   0.2153   1.0826   1.0853
     1.0884   1.4159   1.4183   1.4208   2.0259   2.0273   2.0291   2.0293
     2.0310   2.0321   2.0857   2.0880   2.0909   2.6384   2.6402   2.6416
     2.7386   2.7386   2.7433   2.7433   2.7477   2.7480   2.7955   2.7962
     2.7975   3.1033   3.1065   3.1075   3.1076   3.1086   3.1118   3.3698
     3.3718   3.3735   3.3836   3.3865   3.3885   3.7328   3.7348   3.7356
     3.7548   3.7564   3.7590   3.8371   3.8396   3.8418   4.1100   4.1128
     4.1141   4.1144   4.1157   4.1188   4.1509   4.1540   4.1560   4.4127
     4.4679   4.4717   4.4736   4.7117   4.7147   4.7175   4.7748   4.7786
     4.7832   4.9361   4.9363   5.2398   5.2438   5.2472   5.7239   5.7241
     6.9356   6.9363   6.9368   7.3758   7.3768   7.3776   7.5987   7.8615
     7.8619   7.8619   7.9914   7.9918   7.9919   8.1491   8.1516   8.1535
     8.1665   8.1688   8.1721   8.3989   8.4013   8.4019   8.4026   8.4039
     8.4058   8.4479

     the Fermi energy is     6.3276 ev

!    total energy              =   -2990.53155119 Ry
     Harris-Foulkes estimate   =   -2990.53155119 Ry
     estimated scf accuracy    <          3.9E-10 Ry

     total all-electron energy =    -37124.667104 Ry

     The total energy is the sum of the following terms:

     one-electron contribution =     178.60665804 Ry
     hartree contribution      =      35.70138201 Ry
     xc contribution           =    -391.44199808 Ry
     ewald contribution        =    -534.00628771 Ry
     one-center paw contrib.   =   -2279.39130545 Ry
     smearing contrib. (-TS)   =       0.00000000 Ry

     convergence has been achieved in  13 iterations

     Forces acting on atoms (Ry/au):

     atom    1 type  1   force =    -0.01591186   -0.00003073    0.00003073
     atom    2 type  1   force =     0.00027813   -0.00002729    0.00002729
     atom    3 type  1   force =     0.00008127   -0.00002699    0.00002477
     atom    4 type  1   force =    -0.00006787   -0.00005021    0.00003888
     atom    5 type  1   force =     0.00008127   -0.00002477    0.00002699
     atom    6 type  1   force =    -0.00006787   -0.00003888    0.00005021
     atom    7 type  1   force =    -0.00048706   -0.00003841    0.00003841
     atom    8 type  1   force =     0.00395337   -0.00270531    0.00270531
     atom    9 type  1   force =    -0.00050171    0.00014082    0.00008917
     atom   10 type  1   force =    -0.00006104    0.00005995   -0.00002914
     atom   11 type  1   force =    -0.00054571    0.00014043   -0.00014043
     atom   12 type  1   force =     0.00025704    0.00003678   -0.00003678
     atom   13 type  1   force =    -0.00053559   -0.00007080    0.00007080
     atom   14 type  1   force =     0.00392900    0.00269599   -0.00269599
     atom   15 type  1   force =    -0.00050171   -0.00008917   -0.00014082
     atom   16 type  1   force =    -0.00006104    0.00002914   -0.00005995
     atom   17 type  1   force =     0.00020992   -0.00007838    0.00025849
     atom   18 type  1   force =     0.00049129   -0.00008617   -0.00020527
     atom   19 type  1   force =     0.00007103    0.00001882   -0.00004974
     atom   20 type  1   force =    -0.00001588    0.00004242    0.00011405
     atom   21 type  1   force =     0.00025969    0.00013692   -0.00019860
     atom   22 type  1   force =     0.00017969    0.00015126    0.00028439
     atom   23 type  1   force =     0.00002998    0.00004676    0.00011427
     atom   24 type  1   force =     0.00385476    0.00249132    0.00240484
     atom   25 type  1   force =     0.00025969    0.00019860   -0.00013692
     atom   26 type  1   force =     0.00017969   -0.00028439   -0.00015126
     atom   27 type  1   force =     0.00020992   -0.00025849    0.00007838
     atom   28 type  1   force =     0.00049129    0.00020527    0.00008617
     atom   29 type  1   force =     0.00002998   -0.00011427   -0.00004676
     atom   30 type  1   force =     0.00385476   -0.00240484   -0.00249132
     atom   31 type  1   force =     0.00007103    0.00004974   -0.00001882
     atom   32 type  1   force =    -0.00001588   -0.00011405   -0.00004242
     atom   33 type  1   force =     0.00021639   -0.00008235    0.00026455
     atom   34 type  1   force =     0.00048770   -0.00008181   -0.00019857
     atom   35 type  1   force =     0.00006921    0.00001691   -0.00005049
     atom   36 type  1   force =    -0.00001787    0.00004020    0.00011580
     atom   37 type  1   force =     0.00026385    0.00013877   -0.00020699
     atom   38 type  1   force =     0.00017164    0.00014857    0.00027717
     atom   39 type  1   force =     0.00002992    0.00004792    0.00011382
     atom   40 type  1   force =     0.00397208    0.00271460    0.00262805
     atom   41 type  1   force =     0.00002992   -0.00011382   -0.00004792
     atom   42 type  1   force =     0.00397208   -0.00262805   -0.00271460
     atom   43 type  1   force =     0.00006921    0.00005049   -0.00001691
     atom   44 type  1   force =    -0.00001787   -0.00011580   -0.00004020
     atom   45 type  1   force =     0.00026385    0.00020699   -0.00013877
     atom   46 type  1   force =     0.00017164   -0.00027717   -0.00014857
     atom   47 type  1   force =     0.00021639   -0.00026455    0.00008235
     atom   48 type  1   force =     0.00048770    0.00019857    0.00008181
     atom   49 type  1   force =    -0.00006537   -0.00003716    0.00005163
     atom   50 type  1   force =     0.00008258   -0.00002661    0.00002918
     atom   51 type  1   force =     0.00383604   -0.00248155    0.00248155
     atom   52 type  1   force =    -0.00048688   -0.00003820    0.00003820
     atom   53 type  1   force =     0.00027562   -0.00002762    0.00002762
     atom   54 type  1   force =    -0.01591249   -0.00003084    0.00003084
     atom   55 type  1   force =    -0.00006537   -0.00005163    0.00003716
     atom   56 type  1   force =     0.00008258   -0.00002918    0.00002661
     atom   57 type  1   force =    -0.00005778    0.00006181   -0.00002709
     atom   58 type  1   force =    -0.00049535    0.00013910    0.00008333
     atom   59 type  1   force =     0.00025235    0.00003611   -0.00003611
     atom   60 type  1   force =    -0.00054975    0.00014473   -0.00014473
     atom   61 type  1   force =     0.00381218    0.00247294   -0.00247294
     atom   62 type  1   force =    -0.00054070   -0.00007621    0.00007621
     atom   63 type  1   force =    -0.00005778    0.00002709   -0.00006181
     atom   64 type  1   force =    -0.00049535   -0.00008333   -0.00013910

     Total force =     0.027209     Total SCF correction =     0.000039

     Writing output data file pwscf.save
 
     init_run     :      6.75s CPU      7.39s WALL (       1 calls)
     electrons    :    210.97s CPU    226.65s WALL (       1 calls)
     forces       :      3.24s CPU      3.31s WALL (       1 calls)

     Called by init_run:
     wfcinit      :      6.15s CPU      6.73s WALL (       1 calls)
     potinit      :      0.24s CPU      0.24s WALL (       1 calls)

     Called by electrons:
     c_bands      :    187.29s CPU    195.16s WALL (      14 calls)
     sum_band     :     19.57s CPU     24.85s WALL (      14 calls)
     v_of_rho     :      0.68s CPU      0.68s WALL (      14 calls)
     newd         :      0.99s CPU      1.01s WALL (      14 calls)
     PAW_pot      :      2.32s CPU      2.32s WALL (      14 calls)
     mix_rho      :      0.31s CPU      0.31s WALL (      14 calls)

     Called by c_bands:
     init_us_2    :      1.87s CPU      1.90s WALL (      90 calls)
     cegterg      :    182.07s CPU    184.27s WALL (      42 calls)

     Called by sum_band:
     sum_band:bec :      0.04s CPU      0.04s WALL (      42 calls)
     addusdens    :      1.00s CPU      1.09s WALL (      14 calls)

     Called by *egterg:
     h_psi        :     86.67s CPU     86.89s WALL (     183 calls)
     s_psi        :     22.56s CPU     22.58s WALL (     183 calls)
     g_psi        :      0.77s CPU      0.77s WALL (     138 calls)
     cdiaghg      :     26.66s CPU     26.67s WALL (     177 calls)

     Called by h_psi:
     add_vuspsi   :     22.46s CPU     22.48s WALL (     183 calls)

     General routines
     calbec       :     34.90s CPU     34.97s WALL (     237 calls)
     fft          :      0.39s CPU      0.40s WALL (     195 calls)
     fftw         :     43.50s CPU     43.62s WALL (   42220 calls)
     davcio       :      0.00s CPU      0.03s WALL (       3 calls)
 
     Parallel routines
     fft_scatter  :     11.13s CPU     11.10s WALL (   42415 calls)
 
     PWSCF        :  3m41.28s CPU     4m 9.31s WALL

 
   This run was terminated on:  13:56: 3   3Feb2016            

=------------------------------------------------------------------------------=
   JOB DONE.
=------------------------------------------------------------------------------=
