
     Program PWSCF v.5.3.0 (svn rev. 11974) starts on  3Feb2016 at 13:47:27 

     This program is part of the open-source Quantum ESPRESSO suite
     for quantum simulation of materials; please cite
         "P. Giannozzi et al., J. Phys.:Condens. Matter 21 395502 (2009);
          URL http://www.quantum-espresso.org", 
     in publications or presentations arising from this work. More details at
     http://www.quantum-espresso.org/quote

     Parallel version (MPI), running on    16 processors
     R & G space division:  proc/nbgrp/npool/nimage =      16
     Reading input from Si.in

     Current dimensions of program PWSCF are:
     Max number of different atomic species (ntypx) = 10
     Max number of k-points (npk) =  40000
     Max angular momentum in pseudopotentials (lmaxx) =  3
               file Si.pbe-n-kjpaw_psl.0.1.UPF: wavefunction(s)  3S renormalized

     Subspace diagonalization in iterative solution of the eigenvalue problem:
     one sub-group per k-point group (pool) will be used
     scalapack distributed-memory algorithm (size of sub-group:  2*  2 procs)

 
     Parallelization info
     --------------------
     sticks:   dense  smooth     PW     G-vecs:    dense   smooth      PW
     Min         424     424    109                26332    26332    3467
     Max         425     425    110                26336    26336    3472
     Sum        6785    6785   1757               421349   421349   55515
 


     bravais-lattice index     =            0
     lattice parameter (alat)  =      20.6591  a.u.
     unit-cell volume          =    8817.2783 (a.u.)^3
     number of atoms/cell      =           64
     number of atomic types    =            1
     number of electrons       =       256.00
     number of Kohn-Sham states=          154
     kinetic-energy cutoff     =      50.0000  Ry
     charge density cutoff     =     200.0000  Ry
     convergence threshold     =      1.0E-09
     mixing beta               =       0.7000
     number of iterations used =            8  plain     mixing
     Exchange-correlation      =  SLA  PW   PBX  PBC ( 1  4  3  4 0 0)

     celldm(1)=  20.659106  celldm(2)=   0.000000  celldm(3)=   0.000000
     celldm(4)=   0.000000  celldm(5)=   0.000000  celldm(6)=   0.000000

     crystal axes: (cart. coord. in units of alat)
               a(1) = (   1.000000   0.000000   0.000000 )  
               a(2) = (   0.000000   1.000000   0.000000 )  
               a(3) = (   0.000000   0.000000   1.000000 )  

     reciprocal axes: (cart. coord. in units 2 pi/alat)
               b(1) = (  1.000000  0.000000  0.000000 )  
               b(2) = (  0.000000  1.000000  0.000000 )  
               b(3) = (  0.000000  0.000000  1.000000 )  


     PseudoPot. # 1 for Si read from file:
     /home/togo/espresso/pseudo/Si.pbe-n-kjpaw_psl.0.1.UPF
     MD5 check sum: b9d333a40e496bef61db012f150758bf
     Pseudo is Projector augmented-wave + core cor, Zval =  4.0
     Generated using "atomic" code by A. Dal Corso  v.5.0.2 svn rev. 9415
     Shape of augmentation charge: PSQ
     Using radial grid of 1141 points,  4 beta functions with: 
                l(1) =   0
                l(2) =   0
                l(3) =   1
                l(4) =   1
     Q(r) pseudized with 0 coefficients 


     atomic species   valence    mass     pseudopotential
        Si             4.00    28.08550     Si( 1.00)

      2 Sym. Ops., with inversion, found ( 1 have fractional translation)



   Cartesian axes

     site n.     atom                  positions (alat units)
         1           Si  tau(   1) = (   0.4404043   0.4375000   0.4375000  )
         2           Si  tau(   2) = (   0.9375000   0.4375000   0.4375000  )
         3           Si  tau(   3) = (   0.4375000   0.9375000   0.4375000  )
         4           Si  tau(   4) = (   0.9375000   0.9375000   0.4375000  )
         5           Si  tau(   5) = (   0.4375000   0.4375000   0.9375000  )
         6           Si  tau(   6) = (   0.9375000   0.4375000   0.9375000  )
         7           Si  tau(   7) = (   0.4375000   0.9375000   0.9375000  )
         8           Si  tau(   8) = (   0.9375000   0.9375000   0.9375000  )
         9           Si  tau(   9) = (   0.4375000   0.1875000   0.1875000  )
        10           Si  tau(  10) = (   0.9375000   0.1875000   0.1875000  )
        11           Si  tau(  11) = (   0.4375000   0.6875000   0.1875000  )
        12           Si  tau(  12) = (   0.9375000   0.6875000   0.1875000  )
        13           Si  tau(  13) = (   0.4375000   0.1875000   0.6875000  )
        14           Si  tau(  14) = (   0.9375000   0.1875000   0.6875000  )
        15           Si  tau(  15) = (   0.4375000   0.6875000   0.6875000  )
        16           Si  tau(  16) = (   0.9375000   0.6875000   0.6875000  )
        17           Si  tau(  17) = (   0.1875000   0.4375000   0.1875000  )
        18           Si  tau(  18) = (   0.6875000   0.4375000   0.1875000  )
        19           Si  tau(  19) = (   0.1875000   0.9375000   0.1875000  )
        20           Si  tau(  20) = (   0.6875000   0.9375000   0.1875000  )
        21           Si  tau(  21) = (   0.1875000   0.4375000   0.6875000  )
        22           Si  tau(  22) = (   0.6875000   0.4375000   0.6875000  )
        23           Si  tau(  23) = (   0.1875000   0.9375000   0.6875000  )
        24           Si  tau(  24) = (   0.6875000   0.9375000   0.6875000  )
        25           Si  tau(  25) = (   0.1875000   0.1875000   0.4375000  )
        26           Si  tau(  26) = (   0.6875000   0.1875000   0.4375000  )
        27           Si  tau(  27) = (   0.1875000   0.6875000   0.4375000  )
        28           Si  tau(  28) = (   0.6875000   0.6875000   0.4375000  )
        29           Si  tau(  29) = (   0.1875000   0.1875000   0.9375000  )
        30           Si  tau(  30) = (   0.6875000   0.1875000   0.9375000  )
        31           Si  tau(  31) = (   0.1875000   0.6875000   0.9375000  )
        32           Si  tau(  32) = (   0.6875000   0.6875000   0.9375000  )
        33           Si  tau(  33) = (   0.0625000   0.0625000   0.0625000  )
        34           Si  tau(  34) = (   0.5625000   0.0625000   0.0625000  )
        35           Si  tau(  35) = (   0.0625000   0.5625000   0.0625000  )
        36           Si  tau(  36) = (   0.5625000   0.5625000   0.0625000  )
        37           Si  tau(  37) = (   0.0625000   0.0625000   0.5625000  )
        38           Si  tau(  38) = (   0.5625000   0.0625000   0.5625000  )
        39           Si  tau(  39) = (   0.0625000   0.5625000   0.5625000  )
        40           Si  tau(  40) = (   0.5625000   0.5625000   0.5625000  )
        41           Si  tau(  41) = (   0.0625000   0.3125000   0.3125000  )
        42           Si  tau(  42) = (   0.5625000   0.3125000   0.3125000  )
        43           Si  tau(  43) = (   0.0625000   0.8125000   0.3125000  )
        44           Si  tau(  44) = (   0.5625000   0.8125000   0.3125000  )
        45           Si  tau(  45) = (   0.0625000   0.3125000   0.8125000  )
        46           Si  tau(  46) = (   0.5625000   0.3125000   0.8125000  )
        47           Si  tau(  47) = (   0.0625000   0.8125000   0.8125000  )
        48           Si  tau(  48) = (   0.5625000   0.8125000   0.8125000  )
        49           Si  tau(  49) = (   0.3125000   0.0625000   0.3125000  )
        50           Si  tau(  50) = (   0.8095957   0.0625000   0.3125000  )
        51           Si  tau(  51) = (   0.3125000   0.5625000   0.3125000  )
        52           Si  tau(  52) = (   0.8125000   0.5625000   0.3125000  )
        53           Si  tau(  53) = (   0.3125000   0.0625000   0.8125000  )
        54           Si  tau(  54) = (   0.8125000   0.0625000   0.8125000  )
        55           Si  tau(  55) = (   0.3125000   0.5625000   0.8125000  )
        56           Si  tau(  56) = (   0.8125000   0.5625000   0.8125000  )
        57           Si  tau(  57) = (   0.3125000   0.3125000   0.0625000  )
        58           Si  tau(  58) = (   0.8125000   0.3125000   0.0625000  )
        59           Si  tau(  59) = (   0.3125000   0.8125000   0.0625000  )
        60           Si  tau(  60) = (   0.8125000   0.8125000   0.0625000  )
        61           Si  tau(  61) = (   0.3125000   0.3125000   0.5625000  )
        62           Si  tau(  62) = (   0.8125000   0.3125000   0.5625000  )
        63           Si  tau(  63) = (   0.3125000   0.8125000   0.5625000  )
        64           Si  tau(  64) = (   0.8125000   0.8125000   0.5625000  )

     number of k points=     4  gaussian smearing, width (Ry)=  0.0100
                       cart. coord. in units 2pi/alat
        k(    1) = (   0.2500000   0.2500000   0.2500000), wk =   0.5000000
        k(    2) = (  -0.2500000   0.2500000  -0.2500000), wk =   0.5000000
        k(    3) = (   0.2500000  -0.2500000  -0.2500000), wk =   0.5000000
        k(    4) = (   0.2500000   0.2500000  -0.2500000), wk =   0.5000000

     Dense  grid:   421349 G-vectors     FFT dimensions: (  96,  96,  96)

     Largest allocated arrays     est. size (Mb)     dimensions
        Kohn-Sham Wavefunctions         7.72 Mb     (    3285,  154)
        NL pseudopotentials            25.66 Mb     (    3285,  512)
        Each V/rho on FFT grid          0.84 Mb     (   55296)
        Each G-vector array             0.20 Mb     (   26336)
        G-vector shells                 0.01 Mb     (    1719)
     Largest temporary arrays     est. size (Mb)     dimensions
        Auxiliary wavefunctions        30.88 Mb     (    3285,  616)
        Each subspace H/S matrix        1.45 Mb     (     308,  308)
        Each <psi_i|beta_j> matrix      1.20 Mb     (     512,  154)
        Arrays for rho mixing           6.75 Mb     (   55296,    8)

     Check: negative/imaginary core charge=   -0.000001    0.000000

     Initial potential from superposition of free atoms

     starting charge  255.96421, renormalised to  256.00000
     Starting wfc are  256 randomized atomic wfcs
     Checking if some PAW data can be deallocated... 

     total cpu time spent up to now is        9.6 secs

     per-process dynamical memory:   117.0 Mb

     Self-consistent Calculation

     iteration #  1     ecut=    50.00 Ry     beta=0.70
     Davidson diagonalization with overlap
     ethr =  1.00E-02,  avg # of iterations =  3.0

     Threshold (ethr) on eigenvalues was too large:
     Diagonalizing with lowered threshold

     Davidson diagonalization with overlap
     ethr =  7.00E-04,  avg # of iterations =  1.0

     total cpu time spent up to now is       45.3 secs

     total energy              =   -2990.45694614 Ry
     Harris-Foulkes estimate   =   -2990.87644055 Ry
     estimated scf accuracy    <       1.77330929 Ry

     iteration #  2     ecut=    50.00 Ry     beta=0.70
     Davidson diagonalization with overlap
     ethr =  6.93E-04,  avg # of iterations =  1.0

     total cpu time spent up to now is       58.5 secs

     total energy              =   -2990.52362627 Ry
     Harris-Foulkes estimate   =   -2990.52744451 Ry
     estimated scf accuracy    <       0.07627183 Ry

     iteration #  3     ecut=    50.00 Ry     beta=0.70
     Davidson diagonalization with overlap
     ethr =  2.98E-05,  avg # of iterations =  9.2

     total cpu time spent up to now is       86.4 secs

     total energy              =   -2990.53077544 Ry
     Harris-Foulkes estimate   =   -2990.53131094 Ry
     estimated scf accuracy    <       0.00169082 Ry

     iteration #  4     ecut=    50.00 Ry     beta=0.70
     Davidson diagonalization with overlap
     ethr =  6.60E-07,  avg # of iterations =  6.5

     total cpu time spent up to now is      121.9 secs

     total energy              =   -2990.53110925 Ry
     Harris-Foulkes estimate   =   -2990.53197924 Ry
     estimated scf accuracy    <       0.00239443 Ry

     iteration #  5     ecut=    50.00 Ry     beta=0.70
     Davidson diagonalization with overlap
     ethr =  6.60E-07,  avg # of iterations =  2.2

     total cpu time spent up to now is      140.3 secs

     total energy              =   -2990.53150959 Ry
     Harris-Foulkes estimate   =   -2990.53156611 Ry
     estimated scf accuracy    <       0.00014207 Ry

     iteration #  6     ecut=    50.00 Ry     beta=0.70
     Davidson diagonalization with overlap
     ethr =  5.55E-08,  avg # of iterations =  3.0

     total cpu time spent up to now is      159.5 secs

     total energy              =   -2990.53153684 Ry
     Harris-Foulkes estimate   =   -2990.53156400 Ry
     estimated scf accuracy    <       0.00008904 Ry

     iteration #  7     ecut=    50.00 Ry     beta=0.70
     Davidson diagonalization with overlap
     ethr =  3.48E-08,  avg # of iterations =  2.0

     total cpu time spent up to now is      175.4 secs

     total energy              =   -2990.53154995 Ry
     Harris-Foulkes estimate   =   -2990.53155085 Ry
     estimated scf accuracy    <       0.00000210 Ry

     iteration #  8     ecut=    50.00 Ry     beta=0.70
     Davidson diagonalization with overlap
     ethr =  8.22E-10,  avg # of iterations =  3.0

     total cpu time spent up to now is      198.1 secs

     total energy              =   -2990.53155082 Ry
     Harris-Foulkes estimate   =   -2990.53155100 Ry
     estimated scf accuracy    <       0.00000039 Ry

     iteration #  9     ecut=    50.00 Ry     beta=0.70
     Davidson diagonalization with overlap
     ethr =  1.51E-10,  avg # of iterations =  2.0

     total cpu time spent up to now is      216.0 secs

     total energy              =   -2990.53155081 Ry
     Harris-Foulkes estimate   =   -2990.53155090 Ry
     estimated scf accuracy    <       0.00000011 Ry

     iteration # 10     ecut=    50.00 Ry     beta=0.70
     Davidson diagonalization with overlap
     ethr =  4.44E-11,  avg # of iterations =  3.0

     total cpu time spent up to now is      233.9 secs

     total energy              =   -2990.53155079 Ry
     Harris-Foulkes estimate   =   -2990.53155083 Ry
     estimated scf accuracy    <       0.00000005 Ry

     iteration # 11     ecut=    50.00 Ry     beta=0.70
     Davidson diagonalization with overlap
     ethr =  2.11E-11,  avg # of iterations =  2.0

     total cpu time spent up to now is      249.9 secs

     total energy              =   -2990.53155080 Ry
     Harris-Foulkes estimate   =   -2990.53155080 Ry
     estimated scf accuracy    <          3.3E-09 Ry

     iteration # 12     ecut=    50.00 Ry     beta=0.70
     Davidson diagonalization with overlap
     ethr =  1.29E-12,  avg # of iterations =  3.0

     total cpu time spent up to now is      272.0 secs

     total energy              =   -2990.53155080 Ry
     Harris-Foulkes estimate   =   -2990.53155080 Ry
     estimated scf accuracy    <          3.2E-09 Ry

     iteration # 13     ecut=    50.00 Ry     beta=0.70
     Davidson diagonalization with overlap
     ethr =  1.26E-12,  avg # of iterations =  2.0

     total cpu time spent up to now is      291.7 secs

     End of self-consistent calculation

          k = 0.2500 0.2500 0.2500 ( 52563 PWs)   bands (ev):

    -5.6250  -5.1011  -5.0953  -5.0930  -4.6012  -4.5956  -4.5933  -4.1621
    -4.0678  -4.0620  -4.0591  -3.6564  -3.6519  -3.6468  -3.6456  -3.6431
    -3.6417  -3.4574  -3.4567  -3.4523  -2.9618  -2.9567  -2.9515  -2.5931
    -2.5902  -2.5857  -2.4303  -2.4244  -2.4200  -2.4190  -2.4169  -2.4157
    -0.8897  -0.8801  -0.8766  -0.8754  -0.8738  -0.8716  -0.7840  -0.7790
    -0.7758  -0.6669  -0.6572  -0.6567  -0.5846  -0.5818  -0.5747   0.1225
     0.2014   0.2086   0.2125   0.2146   0.2171   0.2194   1.0768   1.0849
     1.0872   1.4127   1.4207   1.4218   2.0247   2.0260   2.0290   2.0305
     2.0315   2.0332   2.0865   2.0907   2.0914   2.6352   2.6389   2.6402
     2.7401   2.7416   2.7430   2.7447   2.7479   2.7484   2.7939   2.8001
     2.8034   3.0994   3.1058   3.1074   3.1078   3.1112   3.1128   3.3716
     3.3717   3.3754   3.3818   3.3901   3.3906   3.7281   3.7341   3.7356
     3.7510   3.7530   3.7560   3.8377   3.8402   3.8441   4.1058   4.1080
     4.1100   4.1136   4.1151   4.1165   4.1517   4.1545   4.1591   4.4090
     4.4712   4.4720   4.4768   4.7128   4.7157   4.7208   4.7693   4.7750
     4.7782   4.9326   4.9424   5.2419   5.2453   5.2518   5.7207   5.7321
     6.9364   6.9365   6.9409   7.3726   7.3793   7.3805   7.6002   7.8588
     7.8641   7.8675   7.9864   7.9917   7.9927   8.1494   8.1504   8.1560
     8.1676   8.1682   8.1736   8.3920   8.3980   8.3996   8.4026   8.4042
     8.4065   8.4507

          k =-0.2500 0.2500-0.2500 ( 52563 PWs)   bands (ev):

    -5.6251  -5.0995  -5.0961  -5.0931  -4.6001  -4.5964  -4.5938  -4.1641
    -4.0671  -4.0639  -4.0604  -3.6527  -3.6521  -3.6488  -3.6466  -3.6424
    -3.6367  -3.4577  -3.4568  -3.4478  -2.9647  -2.9599  -2.9567  -2.5922
    -2.5898  -2.5849  -2.4270  -2.4251  -2.4228  -2.4204  -2.4166  -2.4107
    -0.8862  -0.8818  -0.8815  -0.8779  -0.8739  -0.8719  -0.7841  -0.7804
    -0.7790  -0.6696  -0.6642  -0.6578  -0.5766  -0.5726  -0.5662   0.1301
     0.2014   0.2052   0.2080   0.2108   0.2146   0.2155   1.0848   1.0886
     1.0899   1.4154   1.4158   1.4236   2.0253   2.0257   2.0282   2.0291
     2.0304   2.0347   2.0848   2.0861   2.0913   2.6404   2.6412   2.6445
     2.7349   2.7373   2.7430   2.7433   2.7445   2.7467   2.7920   2.7928
     2.7988   3.1021   3.1053   3.1071   3.1079   3.1114   3.1126   3.3666
     3.3715   3.3730   3.3825   3.3828   3.3900   3.7345   3.7374   3.7379
     3.7554   3.7583   3.7652   3.8347   3.8399   3.8404   4.1125   4.1135
     4.1142   4.1161   4.1177   4.1276   4.1483   4.1542   4.1552   4.4168
     4.4639   4.4702   4.4722   4.7082   4.7141   4.7149   4.7795   4.7843
     4.7875   4.9300   4.9401   5.2354   5.2430   5.2441   5.7160   5.7272
     6.9310   6.9325   6.9400   7.3720   7.3771   7.3787   7.5972   7.8560
     7.8619   7.8628   7.9874   7.9959   7.9961   8.1478   8.1510   8.1532
     8.1641   8.1691   8.1723   8.3973   8.4024   8.4042   8.4072   8.4083
     8.4457   8.6570

          k = 0.2500-0.2500-0.2500 ( 52563 PWs)   bands (ev):

    -5.6250  -5.0993  -5.0964  -5.0938  -4.5992  -4.5968  -4.5940  -4.1620
    -4.0656  -4.0631  -4.0605  -3.6554  -3.6505  -3.6468  -3.6463  -3.6440
    -3.6423  -3.4573  -3.4566  -3.4523  -2.9585  -2.9576  -2.9540  -2.5930
    -2.5904  -2.5856  -2.4294  -2.4225  -2.4209  -2.4202  -2.4171  -2.4162
    -0.8891  -0.8791  -0.8781  -0.8774  -0.8727  -0.8704  -0.7843  -0.7789
    -0.7759  -0.6670  -0.6572  -0.6568  -0.5890  -0.5766  -0.5754   0.1226
     0.2012   0.2101   0.2108   0.2121   0.2181   0.2213   1.0768   1.0850
     1.0872   1.4131   1.4202   1.4218   2.0246   2.0258   2.0288   2.0307
     2.0317   2.0336   2.0856   2.0906   2.0922   2.6352   2.6390   2.6401
     2.7401   2.7412   2.7437   2.7447   2.7473   2.7490   2.7937   2.8002
     2.8033   3.0992   3.1059   3.1075   3.1088   3.1104   3.1125   3.3717
     3.3718   3.3750   3.3822   3.3896   3.3908   3.7288   3.7341   3.7353
     3.7507   3.7529   3.7561   3.8378   3.8401   3.8443   4.1053   4.1074
     4.1107   4.1148   4.1151   4.1158   4.1518   4.1541   4.1592   4.4090
     4.4712   4.4719   4.4768   4.7127   4.7153   4.7211   4.7684   4.7763
     4.7780   4.9325   4.9424   5.2421   5.2444   5.2527   5.7207   5.7321
     6.9364   6.9364   6.9410   7.3729   7.3763   7.3832   7.6002   7.8589
     7.8629   7.8686   7.9863   7.9917   7.9927   8.1488   8.1514   8.1549
     8.1678   8.1691   8.1733   8.3919   8.3987   8.4005   8.4025   8.4034
     8.4062   8.4504

          k = 0.2500 0.2500-0.2500 ( 52563 PWs)   bands (ev):

    -5.6251  -5.0995  -5.0961  -5.0931  -4.6001  -4.5964  -4.5938  -4.1643
    -4.0668  -4.0639  -4.0603  -3.6509  -3.6505  -3.6501  -3.6476  -3.6433
    -3.6371  -3.4577  -3.4574  -3.4472  -2.9647  -2.9599  -2.9567  -2.5927
    -2.5922  -2.5817  -2.4251  -2.4244  -2.4234  -2.4216  -2.4172  -2.4112
    -0.8849  -0.8845  -0.8799  -0.8794  -0.8733  -0.8709  -0.7859  -0.7840
    -0.7741  -0.6703  -0.6643  -0.6570  -0.5766  -0.5726  -0.5661   0.1299
     0.2007   0.2033   0.2084   0.2100   0.2166   0.2167   1.0848   1.0886
     1.0899   1.4154   1.4158   1.4236   2.0245   2.0256   2.0290   2.0296
     2.0308   2.0344   2.0845   2.0857   2.0912   2.6400   2.6404   2.6456
     2.7352   2.7367   2.7414   2.7446   2.7458   2.7474   2.7915   2.7923
     2.7988   3.1019   3.1056   3.1068   3.1083   3.1115   3.1125   3.3676
     3.3703   3.3732   3.3822   3.3830   3.3901   3.7343   3.7370   3.7380
     3.7554   3.7581   3.7657   3.8349   3.8398   3.8406   4.1120   4.1128
     4.1143   4.1169   4.1182   4.1274   4.1480   4.1542   4.1552   4.4168
     4.4656   4.4685   4.4722   4.7087   4.7140   4.7149   4.7795   4.7844
     4.7875   4.9298   4.9401   5.2353   5.2429   5.2441   5.7160   5.7272
     6.9313   6.9322   6.9400   7.3720   7.3772   7.3787   7.5972   7.8558
     7.8619   7.8627   7.9864   7.9960   7.9970   8.1473   8.1513   8.1534
     8.1666   8.1672   8.1723   8.3966   8.4007   8.4030   8.4057   8.4087
     8.4098   8.4460

     the Fermi energy is     6.3266 ev

!    total energy              =   -2990.53155080 Ry
     Harris-Foulkes estimate   =   -2990.53155080 Ry
     estimated scf accuracy    <          1.9E-10 Ry

     total all-electron energy =    -37124.667104 Ry

     The total energy is the sum of the following terms:

     one-electron contribution =     178.60633689 Ry
     hartree contribution      =      35.70154141 Ry
     xc contribution           =    -391.44199869 Ry
     ewald contribution        =    -534.00612461 Ry
     one-center paw contrib.   =   -2279.39130580 Ry
     smearing contrib. (-TS)   =       0.00000000 Ry

     convergence has been achieved in  13 iterations

     Forces acting on atoms (Ry/au):

     atom    1 type  1   force =    -0.01592075    0.00002857   -0.00002817
     atom    2 type  1   force =     0.00008101    0.00003757   -0.00005115
     atom    3 type  1   force =     0.00006713    0.00003761   -0.00003837
     atom    4 type  1   force =    -0.00381871    0.00248142   -0.00248217
     atom    5 type  1   force =     0.00007565    0.00003082   -0.00003115
     atom    6 type  1   force =    -0.00025922    0.00002746   -0.00002764
     atom    7 type  1   force =    -0.00050317    0.00002846   -0.00002634
     atom    8 type  1   force =     0.00008299    0.00005206   -0.00003714
     atom    9 type  1   force =    -0.00051586    0.00007588    0.00015160
     atom   10 type  1   force =    -0.00381291   -0.00247285    0.00249050
     atom   11 type  1   force =    -0.00055235    0.00008298   -0.00008070
     atom   12 type  1   force =     0.00005972   -0.00002718    0.00004227
     atom   13 type  1   force =    -0.00055216   -0.00013732    0.00013618
     atom   14 type  1   force =     0.00005933   -0.00006150    0.00004726
     atom   15 type  1   force =    -0.00050674   -0.00014547   -0.00008333
     atom   16 type  1   force =    -0.00025293   -0.00003676    0.00001810
     atom   17 type  1   force =     0.00020548   -0.00013442    0.00020061
     atom   18 type  1   force =     0.00029846   -0.00015320   -0.00028241
     atom   19 type  1   force =     0.00005502   -0.00004784   -0.00011520
     atom   20 type  1   force =    -0.00388595   -0.00271395   -0.00262869
     atom   21 type  1   force =     0.00025345    0.00007902   -0.00025879
     atom   22 type  1   force =    -0.00001815    0.00008583    0.00020441
     atom   23 type  1   force =     0.00001594   -0.00001720    0.00005207
     atom   24 type  1   force =     0.00010376   -0.00004070   -0.00011480
     atom   25 type  1   force =     0.00024382    0.00026568   -0.00007176
     atom   26 type  1   force =    -0.00369276    0.00247221    0.00258975
     atom   27 type  1   force =     0.00020548   -0.00020252    0.00013659
     atom   28 type  1   force =     0.00029875    0.00027147    0.00016381
     atom   29 type  1   force =     0.00001649   -0.00005023    0.00001534
     atom   30 type  1   force =     0.00010390    0.00012611    0.00002955
     atom   31 type  1   force =     0.00006406    0.00010815    0.00004105
     atom   32 type  1   force =    -0.00021342   -0.00004811    0.00003701
     atom   33 type  1   force =    -0.00025345   -0.00007902    0.00025879
     atom   34 type  1   force =     0.00001815   -0.00008583   -0.00020441
     atom   35 type  1   force =    -0.00001594    0.00001720   -0.00005207
     atom   36 type  1   force =    -0.00010376    0.00004070    0.00011480
     atom   37 type  1   force =    -0.00020548    0.00013442   -0.00020061
     atom   38 type  1   force =    -0.00029846    0.00015320    0.00028241
     atom   39 type  1   force =    -0.00005502    0.00004784    0.00011520
     atom   40 type  1   force =     0.00388595    0.00271395    0.00262869
     atom   41 type  1   force =    -0.00024382   -0.00026568    0.00007176
     atom   42 type  1   force =     0.00369276   -0.00247221   -0.00258975
     atom   43 type  1   force =    -0.00020548    0.00020252   -0.00013659
     atom   44 type  1   force =    -0.00029875   -0.00027147   -0.00016381
     atom   45 type  1   force =    -0.00001649    0.00005023   -0.00001534
     atom   46 type  1   force =    -0.00010390   -0.00012611   -0.00002955
     atom   47 type  1   force =    -0.00006406   -0.00010815   -0.00004105
     atom   48 type  1   force =     0.00021342    0.00004811   -0.00003701
     atom   49 type  1   force =    -0.00008101   -0.00003757    0.00005115
     atom   50 type  1   force =     0.01592075   -0.00002857    0.00002817
     atom   51 type  1   force =     0.00381871   -0.00248142    0.00248217
     atom   52 type  1   force =    -0.00006713   -0.00003761    0.00003837
     atom   53 type  1   force =     0.00025922   -0.00002746    0.00002764
     atom   54 type  1   force =    -0.00007565   -0.00003082    0.00003115
     atom   55 type  1   force =    -0.00008299   -0.00005206    0.00003714
     atom   56 type  1   force =     0.00050317   -0.00002846    0.00002634
     atom   57 type  1   force =    -0.00005933    0.00006150   -0.00004726
     atom   58 type  1   force =     0.00055216    0.00013732   -0.00013618
     atom   59 type  1   force =     0.00025293    0.00003676   -0.00001810
     atom   60 type  1   force =     0.00050674    0.00014547    0.00008333
     atom   61 type  1   force =     0.00381291    0.00247285   -0.00249050
     atom   62 type  1   force =     0.00051586   -0.00007588   -0.00015160
     atom   63 type  1   force =    -0.00005972    0.00002718   -0.00004227
     atom   64 type  1   force =     0.00055235   -0.00008298    0.00008070

     Total force =     0.027048     Total SCF correction =     0.000025

     Writing output data file pwscf.save
 
     init_run     :      8.77s CPU      9.04s WALL (       1 calls)
     electrons    :    270.98s CPU    282.85s WALL (       1 calls)
     forces       :      4.12s CPU      4.24s WALL (       1 calls)

     Called by init_run:
     wfcinit      :      8.18s CPU      8.40s WALL (       1 calls)
     potinit      :      0.24s CPU      0.24s WALL (       1 calls)

     Called by electrons:
     c_bands      :    242.52s CPU    252.92s WALL (      14 calls)
     sum_band     :     24.23s CPU     24.42s WALL (      14 calls)
     v_of_rho     :      0.68s CPU      0.69s WALL (      14 calls)
     newd         :      1.04s CPU      1.08s WALL (      14 calls)
     PAW_pot      :      2.30s CPU      2.31s WALL (      14 calls)
     mix_rho      :      0.31s CPU      0.32s WALL (      14 calls)

     Called by c_bands:
     init_us_2    :      2.65s CPU      2.68s WALL (     120 calls)
     cegterg      :    237.14s CPU    240.66s WALL (      56 calls)

     Called by sum_band:
     sum_band:bec :      0.04s CPU      0.04s WALL (      56 calls)
     addusdens    :      1.08s CPU      1.18s WALL (      14 calls)

     Called by *egterg:
     h_psi        :    114.56s CPU    114.83s WALL (     232 calls)
     s_psi        :     29.77s CPU     29.82s WALL (     232 calls)
     g_psi        :      1.03s CPU      1.04s WALL (     172 calls)
     cdiaghg      :     31.59s CPU     31.61s WALL (     224 calls)

     Called by h_psi:
     add_vuspsi   :     29.54s CPU     29.58s WALL (     232 calls)

     General routines
     calbec       :     46.12s CPU     46.19s WALL (     304 calls)
     fft          :      0.39s CPU      0.39s WALL (     195 calls)
     fftw         :     55.99s CPU     56.20s WALL (   55988 calls)
     davcio       :      0.00s CPU      0.01s WALL (       4 calls)
 
     Parallel routines
     fft_scatter  :     15.39s CPU     15.24s WALL (   56183 calls)
 
     PWSCF        :  4m44.16s CPU     5m 8.95s WALL

 
   This run was terminated on:  13:52:36   3Feb2016            

=------------------------------------------------------------------------------=
   JOB DONE.
=------------------------------------------------------------------------------=
