<?xml version="1.0" encoding="ISO-8859-1"?>
<modeling>
 <generator>
  <i name="program" type="string">vasp </i>
  <i name="version" type="string">5.4.1  </i>
  <i name="subversion" type="string">05Feb16 (build Mar 26 2016 11:58:25) complex                          parallel </i>
  <i name="platform" type="string">IFC91_ompi </i>
  <i name="date" type="string">2017 03 12 </i>
  <i name="time" type="string">12:13:56 </i>
 </generator>
 <incar>
  <i type="string" name="PREC">accurate</i>
  <i type="int" name="IALGO">    38</i>
  <i type="logical" name="ADDGRID"> T  </i>
  <i type="int" name="NELMIN">     5</i>
  <i type="int" name="IBRION">    -1</i>
  <i name="EDIFF">      0.00000001</i>
  <i name="ENCUT">    300.00000000</i>
  <i type="logical" name="LREAL"> F  </i>
  <i type="int" name="ISMEAR">     0</i>
  <i name="SIGMA">      0.05000000</i>
  <i type="logical" name="LWAVE"> F  </i>
  <i type="logical" name="LCHARG"> F  </i>
  <v type="int" name="KPOINT_BSE">    -1     0     0     0</v>
 </incar>
 <kpoints>
  <generation param="Monkhorst-Pack">
   <v type="int" name="divisions">       2        2        2 </v>
   <v name="usershift">      0.00000000       0.00000000       0.00000000 </v>
   <v name="genvec1">      0.50000000       0.00000000       0.00000000 </v>
   <v name="genvec2">      0.00000000       0.50000000       0.00000000 </v>
   <v name="genvec3">      0.00000000       0.00000000       0.50000000 </v>
   <v name="shift">      0.50000000       0.50000000       0.50000000 </v>
  </generation>
  <varray name="kpointlist" >
   <v>       0.25000000       0.25000000       0.25000000 </v>
   <v>      -0.25000000       0.25000000       0.25000000 </v>
   <v>       0.25000000      -0.25000000       0.25000000 </v>
   <v>      -0.25000000      -0.25000000       0.25000000 </v>
  </varray>
  <varray name="weights" >
   <v>       0.25000000 </v>
   <v>       0.25000000 </v>
   <v>       0.25000000 </v>
   <v>       0.25000000 </v>
  </varray>
 </kpoints>
 <parameters>
  <separator name="general" >
   <i type="string" name="SYSTEM">unknown system</i>
   <i type="logical" name="LCOMPAT"> F  </i>
  </separator>
  <separator name="electronic" >
   <i type="string" name="PREC">accura</i>
   <i name="ENMAX">    300.00000000</i>
   <i name="ENAUG">    322.06900000</i>
   <i name="EDIFF">      0.00000001</i>
   <i type="int" name="IALGO">    38</i>
   <i type="int" name="IWAVPR">    10</i>
   <i type="int" name="NBANDS">   164</i>
   <i name="NELECT">    256.00000000</i>
   <i type="int" name="TURBO">     0</i>
   <i type="int" name="IRESTART">     0</i>
   <i type="int" name="NREBOOT">     0</i>
   <i type="int" name="NMIN">     0</i>
   <i name="EREF">      0.00000000</i>
   <separator name="electronic smearing" >
    <i type="int" name="ISMEAR">     0</i>
    <i name="SIGMA">      0.05000000</i>
    <i name="KSPACING">      0.50000000</i>
    <i type="logical" name="KGAMMA"> T  </i>
   </separator>
   <separator name="electronic projectors" >
    <i type="logical" name="LREAL"> F  </i>
    <v name="ROPT">      0.00000000</v>
    <i type="int" name="LMAXPAW">  -100</i>
    <i type="int" name="LMAXMIX">     2</i>
    <i type="logical" name="NLSPLINE"> F  </i>
   </separator>
   <separator name="electronic startup" >
    <i type="int" name="ISTART">     0</i>
    <i type="int" name="ICHARG">     2</i>
    <i type="int" name="INIWAV">     1</i>
   </separator>
   <separator name="electronic spin" >
    <i type="int" name="ISPIN">     1</i>
    <i type="logical" name="LNONCOLLINEAR"> F  </i>
    <v name="MAGMOM">      1.00000000      1.00000000      1.00000000      1.00000000      1.00000000      1.00000000      1.00000000      1.00000000      1.00000000      1.00000000      1.00000000      1.00000000      1.00000000      1.00000000      1.00000000      1.00000000      1.00000000      1.00000000      1.00000000      1.00000000
      1.00000000      1.00000000      1.00000000      1.00000000      1.00000000      1.00000000      1.00000000      1.00000000      1.00000000      1.00000000      1.00000000      1.00000000      1.00000000      1.00000000      1.00000000      1.00000000      1.00000000      1.00000000      1.00000000      1.00000000
      1.00000000      1.00000000      1.00000000      1.00000000      1.00000000      1.00000000      1.00000000      1.00000000      1.00000000      1.00000000      1.00000000      1.00000000      1.00000000      1.00000000      1.00000000      1.00000000      1.00000000      1.00000000      1.00000000      1.00000000
      1.00000000      1.00000000      1.00000000      1.00000000</v>
    <i name="NUPDOWN">     -1.00000000</i>
    <i type="logical" name="LSORBIT"> F  </i>
    <v name="SAXIS">      0.00000000      0.00000000      1.00000000</v>
    <i type="logical" name="LSPIRAL"> F  </i>
    <v name="QSPIRAL">      0.00000000      0.00000000      0.00000000</v>
    <i type="logical" name="LZEROZ"> F  </i>
   </separator>
   <separator name="electronic exchange-correlation" >
    <i type="logical" name="LASPH"> F  </i>
    <i type="logical" name="LMETAGGA"> F  </i>
   </separator>
   <separator name="electronic convergence" >
    <i type="int" name="NELM">    60</i>
    <i type="int" name="NELMDL">    -5</i>
    <i type="int" name="NELMIN">     5</i>
    <i name="ENINI">    300.00000000</i>
    <separator name="electronic convergence detail" >
     <i type="logical" name="LDIAG"> T  </i>
     <i type="logical" name="LSUBROT"> F  </i>
     <i name="WEIMIN">      0.00000000</i>
     <i name="EBREAK">      0.00000000</i>
     <i name="DEPER">      0.30000000</i>
     <i type="int" name="NRMM">     4</i>
     <i name="TIME">      0.40000000</i>
    </separator>
   </separator>
   <separator name="electronic mixer" >
    <i name="AMIX">      0.40000000</i>
    <i name="BMIX">      1.00000000</i>
    <i name="AMIN">      0.10000000</i>
    <i name="AMIX_MAG">      1.60000000</i>
    <i name="BMIX_MAG">      1.00000000</i>
    <separator name="electronic mixer details" >
     <i type="int" name="IMIX">     4</i>
     <i type="logical" name="MIXFIRST"> F  </i>
     <i type="int" name="MAXMIX">   -45</i>
     <i name="WC">    100.00000000</i>
     <i type="int" name="INIMIX">     1</i>
     <i type="int" name="MIXPRE">     1</i>
     <i type="int" name="MREMOVE">     5</i>
    </separator>
   </separator>
   <separator name="electronic dipolcorrection" >
    <i type="logical" name="LDIPOL"> F  </i>
    <i type="logical" name="LMONO"> F  </i>
    <i type="int" name="IDIPOL">     0</i>
    <i name="EPSILON">      1.00000000</i>
    <v name="DIPOL">   -100.00000000   -100.00000000   -100.00000000</v>
    <i name="EFIELD">      0.00000000</i>
   </separator>
  </separator>
  <separator name="grids" >
   <i type="int" name="NGX">    64</i>
   <i type="int" name="NGY">    64</i>
   <i type="int" name="NGZ">    64</i>
   <i type="int" name="NGXF">   128</i>
   <i type="int" name="NGYF">   128</i>
   <i type="int" name="NGZF">   128</i>
   <i type="logical" name="ADDGRID"> T  </i>
  </separator>
  <separator name="ionic" >
   <i type="int" name="NSW">     0</i>
   <i type="int" name="IBRION">    -1</i>
   <i type="int" name="ISIF">     2</i>
   <i name="PSTRESS">      0.00000000</i>
   <i name="EDIFFG">      0.00000010</i>
   <i type="int" name="NFREE">     0</i>
   <i name="POTIM">      0.50000000</i>
   <i name="SMASS">     -3.00000000</i>
   <i name="SCALEE">      1.00000000</i>
  </separator>
  <separator name="ionic md" >
   <i name="TEBEG">      0.00010000</i>
   <i name="TEEND">      0.00010000</i>
   <i type="int" name="NBLOCK">     1</i>
   <i type="int" name="KBLOCK">     1</i>
   <i type="int" name="NPACO">   256</i>
   <i name="APACO">     16.00000000</i>
  </separator>
  <separator name="symmetry" >
   <i type="int" name="ISYM">     2</i>
   <i name="SYMPREC">      0.00001000</i>
  </separator>
  <separator name="dos" >
   <i type="logical" name="LORBIT"> F  </i>
   <v name="RWIGS">     -1.00000000</v>
   <i type="int" name="NEDOS">   301</i>
   <i name="EMIN">     10.00000000</i>
   <i name="EMAX">    -10.00000000</i>
   <i name="EFERMI">      0.00000000</i>
  </separator>
  <separator name="writing" >
   <i type="int" name="NWRITE">     2</i>
   <i type="logical" name="LWAVE"> F  </i>
   <i type="logical" name="LCHARG"> F  </i>
   <i type="logical" name="LPARD"> F  </i>
   <i type="logical" name="LVTOT"> F  </i>
   <i type="logical" name="LVHAR"> F  </i>
   <i type="logical" name="LELF"> F  </i>
   <i type="logical" name="LOPTICS"> F  </i>
   <v name="STM">      0.00000000      0.00000000      0.00000000      0.00000000      0.00000000      0.00000000      0.00000000</v>
  </separator>
  <separator name="performance" >
   <i type="int" name="NPAR">     4</i>
   <i type="int" name="NSIM">     4</i>
   <i type="int" name="NBLK">    -1</i>
   <i type="logical" name="LPLANE"> T  </i>
   <i type="logical" name="LSCALAPACK"> T  </i>
   <i type="logical" name="LSCAAWARE"> F  </i>
   <i type="logical" name="LSCALU"> F  </i>
   <i type="logical" name="LASYNC"> F  </i>
   <i type="logical" name="LORBITALREAL"> F  </i>
  </separator>
  <separator name="miscellaneous" >
   <i type="int" name="IDIOT">     3</i>
   <i type="logical" name="LMUSIC"> F  </i>
   <v name="POMASS">     28.08500000</v>
   <v name="DARWINR">      0.00000000</v>
   <v name="DARWINV">      1.00000000</v>
   <i type="logical" name="LCORR"> T  </i>
  </separator>
  <i type="logical" name="GGA_COMPAT"> T  </i>
  <i type="logical" name="LBERRY"> F  </i>
  <i type="int" name="ICORELEVEL">     0</i>
  <i type="logical" name="LDAU"> F  </i>
  <i type="int" name="I_CONSTRAINED_M">     0</i>
  <separator name="electronic exchange-correlation" >
   <i type="string" name="GGA">--</i>
   <i type="int" name="VOSKOWN">     0</i>
   <i type="logical" name="LHFCALC"> F  </i>
   <i type="string" name="PRECFOCK"></i>
   <i type="logical" name="LSYMGRAD"> F  </i>
   <i type="logical" name="LHFONE"> F  </i>
   <i type="logical" name="LRHFCALC"> F  </i>
   <i type="logical" name="LTHOMAS"> F  </i>
   <i type="logical" name="LMODELHF"> F  </i>
   <i name="ENCUT4O">     -1.00000000</i>
   <i type="int" name="EXXOEP">     0</i>
   <i type="int" name="FOURORBIT">     0</i>
   <i name="AEXX">      0.00000000</i>
   <i name="HFALPHA">      0.00000000</i>
   <i name="MCALPHA">      0.00000000</i>
   <i name="ALDAX">      1.00000000</i>
   <i name="AGGAX">      1.00000000</i>
   <i name="ALDAC">      1.00000000</i>
   <i name="AGGAC">      1.00000000</i>
   <i type="int" name="NKREDX">     1</i>
   <i type="int" name="NKREDY">     1</i>
   <i type="int" name="NKREDZ">     1</i>
   <i type="logical" name="SHIFTRED"> F  </i>
   <i type="logical" name="ODDONLY"> F  </i>
   <i type="logical" name="EVENONLY"> F  </i>
   <i type="int" name="LMAXFOCK">     0</i>
   <i type="int" name="NMAXFOCKAE">     0</i>
   <i type="logical" name="LFOCKAEDFT"> F  </i>
   <i name="HFSCREEN">      0.00000000</i>
   <i name="HFSCREENC">      0.00000000</i>
   <i type="int" name="NBANDSGWLOW">     0</i>
  </separator>
  <separator name="vdW DFT" >
   <i type="logical" name="LUSE_VDW"> F  </i>
   <i name="Zab_VDW">     -0.84910000</i>
   <i name="PARAM1">      0.12340000</i>
   <i name="PARAM2">      1.00000000</i>
   <i name="PARAM3">      0.00000000</i>
  </separator>
  <separator name="model GW" >
   <i type="int" name="MODEL_GW">     0</i>
   <i name="MODEL_EPS0">     12.24990743</i>
   <i name="MODEL_ALPHA">      1.00000000</i>
  </separator>
  <separator name="linear response parameters" >
   <i type="logical" name="LEPSILON"> F  </i>
   <i type="logical" name="LRPA"> F  </i>
   <i type="logical" name="LNABLA"> F  </i>
   <i type="logical" name="LVEL"> F  </i>
   <i type="int" name="KINTER">     0</i>
   <i name="CSHIFT">      0.10000000</i>
   <i name="OMEGAMAX">     -1.00000000</i>
   <i name="DEG_THRESHOLD">      0.00200000</i>
  </separator>
  <separator name="orbital magnetization" >
   <i type="logical" name="NUCIND"> F  </i>
   <v name="MAGPOS">      0.00000000      0.00000000      0.00000000</v>
   <i type="logical" name="LNICSALL"> T  </i>
   <i type="logical" name="ORBITALMAG"> F  </i>
   <i type="logical" name="LMAGBLOCH"> F  </i>
   <i type="logical" name="LCHIMAG"> F  </i>
   <i type="logical" name="LGAUGE"> T  </i>
   <i type="int" name="MAGATOM">     0</i>
   <v name="MAGDIPOL">      0.00000000      0.00000000      0.00000000</v>
   <v name="AVECCONST">      0.00000000      0.00000000      0.00000000</v>
  </separator>
  <separator name="response functions" >
   <i type="logical" name="LADDER"> F  </i>
   <i type="logical" name="LFXC"> F  </i>
   <i type="logical" name="LHARTREE"> T  </i>
   <i type="int" name="IBSE">     0</i>
   <v type="int" name="KPOINT">    -1     0     0     0</v>
   <i type="logical" name="LTCTE"> F  </i>
   <i type="logical" name="LTETE"> F  </i>
   <i type="logical" name="LTRIPLET"> F  </i>
   <i type="logical" name="LFXCEPS"> F  </i>
   <i type="logical" name="LFXHEG"> F  </i>
   <i type="int" name="NATURALO">     0</i>
   <i type="logical" name="L2ORDER"> F  </i>
   <i type="logical" name="LUSEW"> F  </i>
   <i name="ENCUTGW">     -2.00000000</i>
   <i name="ENCUTGWSOFT">     -2.00000000</i>
   <i name="ENCUTLF">     -1.00000000</i>
   <i type="int" name="LMAXMP2">    -1</i>
   <i name="SCISSOR">      0.00000000</i>
   <i type="int" name="NOMEGA">     0</i>
   <i type="int" name="NOMEGAR">     0</i>
   <i type="int" name="NBANDSGW">    -1</i>
   <i type="int" name="NBANDSO">    -1</i>
   <i type="int" name="NBANDSV">    -1</i>
   <i type="int" name="NELM">     1</i>
   <i type="int" name="NELMHF">     1</i>
   <i type="int" name="DIM">     3</i>
   <i type="int" name="ANTIRES">     0</i>
   <i name="OMEGAMAX">    -30.00000000</i>
   <i name="OMEGAMIN">    -30.00000000</i>
   <i name="OMEGATL">   -200.00000000</i>
   <i type="int" name="OMEGAGRID">     0</i>
   <i name="CSHIFT">     -0.10000000</i>
   <i type="logical" name="SELFENERGY"> F  </i>
   <i type="logical" name="LSPECTRAL"> F  </i>
   <i type="logical" name="LSPECTRALGW"> F  </i>
   <i type="logical" name="LSINGLES"> F  </i>
   <i type="logical" name="LFERMIGW"> F  </i>
   <i type="logical" name="ODDONLYGW"> F  </i>
   <i type="logical" name="EVENONLYGW"> F  </i>
   <i type="int" name="NKREDLFX">     1</i>
   <i type="int" name="NKREDLFY">     1</i>
   <i type="int" name="NKREDLFZ">     1</i>
   <i type="int" name="MAXMEM">  1800</i>
   <i type="int" name="TELESCOPE">     0</i>
   <i type="int" name="TAUPAR">     1</i>
   <i type="int" name="OMEGAPAR">    -1</i>
   <i name="LAMBDA">      1.00000000</i>
  </separator>
  <separator name="External order field" >
   <i name="OFIELD_KAPPA">      0.00000000</i>
   <v name="OFIELD_K">      0.00000000      0.00000000      0.00000000</v>
   <i name="OFIELD_Q6_NEAR">      0.00000000</i>
   <i name="OFIELD_Q6_FAR">      0.00000000</i>
   <i name="OFIELD_A">      0.00000000</i>
  </separator>
 </parameters>
 <atominfo>
  <atoms>      64 </atoms>
  <types>       1 </types>
  <array name="atoms" >
   <dimension dim="1">ion</dimension>
   <field type="string">element</field>
   <field type="int">atomtype</field>
   <set>
    <rc><c>Si</c><c>   1</c></rc>
    <rc><c>Si</c><c>   1</c></rc>
    <rc><c>Si</c><c>   1</c></rc>
    <rc><c>Si</c><c>   1</c></rc>
    <rc><c>Si</c><c>   1</c></rc>
    <rc><c>Si</c><c>   1</c></rc>
    <rc><c>Si</c><c>   1</c></rc>
    <rc><c>Si</c><c>   1</c></rc>
    <rc><c>Si</c><c>   1</c></rc>
    <rc><c>Si</c><c>   1</c></rc>
    <rc><c>Si</c><c>   1</c></rc>
    <rc><c>Si</c><c>   1</c></rc>
    <rc><c>Si</c><c>   1</c></rc>
    <rc><c>Si</c><c>   1</c></rc>
    <rc><c>Si</c><c>   1</c></rc>
    <rc><c>Si</c><c>   1</c></rc>
    <rc><c>Si</c><c>   1</c></rc>
    <rc><c>Si</c><c>   1</c></rc>
    <rc><c>Si</c><c>   1</c></rc>
    <rc><c>Si</c><c>   1</c></rc>
    <rc><c>Si</c><c>   1</c></rc>
    <rc><c>Si</c><c>   1</c></rc>
    <rc><c>Si</c><c>   1</c></rc>
    <rc><c>Si</c><c>   1</c></rc>
    <rc><c>Si</c><c>   1</c></rc>
    <rc><c>Si</c><c>   1</c></rc>
    <rc><c>Si</c><c>   1</c></rc>
    <rc><c>Si</c><c>   1</c></rc>
    <rc><c>Si</c><c>   1</c></rc>
    <rc><c>Si</c><c>   1</c></rc>
    <rc><c>Si</c><c>   1</c></rc>
    <rc><c>Si</c><c>   1</c></rc>
    <rc><c>Si</c><c>   1</c></rc>
    <rc><c>Si</c><c>   1</c></rc>
    <rc><c>Si</c><c>   1</c></rc>
    <rc><c>Si</c><c>   1</c></rc>
    <rc><c>Si</c><c>   1</c></rc>
    <rc><c>Si</c><c>   1</c></rc>
    <rc><c>Si</c><c>   1</c></rc>
    <rc><c>Si</c><c>   1</c></rc>
    <rc><c>Si</c><c>   1</c></rc>
    <rc><c>Si</c><c>   1</c></rc>
    <rc><c>Si</c><c>   1</c></rc>
    <rc><c>Si</c><c>   1</c></rc>
    <rc><c>Si</c><c>   1</c></rc>
    <rc><c>Si</c><c>   1</c></rc>
    <rc><c>Si</c><c>   1</c></rc>
    <rc><c>Si</c><c>   1</c></rc>
    <rc><c>Si</c><c>   1</c></rc>
    <rc><c>Si</c><c>   1</c></rc>
    <rc><c>Si</c><c>   1</c></rc>
    <rc><c>Si</c><c>   1</c></rc>
    <rc><c>Si</c><c>   1</c></rc>
    <rc><c>Si</c><c>   1</c></rc>
    <rc><c>Si</c><c>   1</c></rc>
    <rc><c>Si</c><c>   1</c></rc>
    <rc><c>Si</c><c>   1</c></rc>
    <rc><c>Si</c><c>   1</c></rc>
    <rc><c>Si</c><c>   1</c></rc>
    <rc><c>Si</c><c>   1</c></rc>
    <rc><c>Si</c><c>   1</c></rc>
    <rc><c>Si</c><c>   1</c></rc>
    <rc><c>Si</c><c>   1</c></rc>
    <rc><c>Si</c><c>   1</c></rc>
   </set>
  </array>
  <array name="atomtypes" >
   <dimension dim="1">type</dimension>
   <field type="int">atomspertype</field>
   <field type="string">element</field>
   <field>mass</field>
   <field>valence</field>
   <field type="string">pseudopotential</field>
   <set>
    <rc><c>  64</c><c>Si</c><c>     28.08500000</c><c>      4.00000000</c><c>  PAW_PBE Si 05Jan2001                  </c></rc>
   </set>
  </array>
 </atominfo>
 <structure name="initialpos" >
  <crystal>
   <varray name="basis" >
    <v>      10.93252578       0.00000000       0.00000000 </v>
    <v>       0.00000000      10.93252578       0.00000000 </v>
    <v>       0.00000000       0.00000000      10.93252578 </v>
   </varray>
   <i name="volume">   1306.65679237 </i>
   <varray name="rec_basis" >
    <v>       0.09147017       0.00000000       0.00000000 </v>
    <v>       0.00000000       0.09147017       0.00000000 </v>
    <v>       0.00000000       0.00000000       0.09147017 </v>
   </varray>
  </crystal>
  <varray name="positions" >
   <v>       0.44024411       0.43750000       0.43750000 </v>
   <v>       0.93750000       0.43750000       0.43750000 </v>
   <v>       0.43944038       0.93944038       0.43750000 </v>
   <v>       0.93750000       0.93750000       0.43750000 </v>
   <v>       0.43750000       0.43750000       0.93750000 </v>
   <v>       0.93750000       0.43750000       0.93750000 </v>
   <v>       0.43750000       0.93750000       0.93750000 </v>
   <v>       0.93750000       0.93750000       0.93750000 </v>
   <v>       0.43750000       0.18750000       0.18750000 </v>
   <v>       0.93750000       0.18750000       0.18750000 </v>
   <v>       0.43750000       0.68750000       0.18750000 </v>
   <v>       0.93750000       0.68750000       0.18750000 </v>
   <v>       0.43750000       0.18750000       0.68750000 </v>
   <v>       0.93750000       0.18750000       0.68750000 </v>
   <v>       0.43750000       0.68750000       0.68750000 </v>
   <v>       0.93750000       0.68750000       0.68750000 </v>
   <v>       0.18750000       0.43750000       0.18750000 </v>
   <v>       0.68750000       0.43750000       0.18750000 </v>
   <v>       0.18750000       0.93750000       0.18750000 </v>
   <v>       0.68750000       0.93750000       0.18750000 </v>
   <v>       0.18750000       0.43750000       0.68750000 </v>
   <v>       0.68750000       0.43750000       0.68750000 </v>
   <v>       0.18750000       0.93750000       0.68750000 </v>
   <v>       0.68750000       0.93750000       0.68750000 </v>
   <v>       0.18750000       0.18750000       0.43750000 </v>
   <v>       0.68750000       0.18750000       0.43750000 </v>
   <v>       0.18750000       0.68750000       0.43750000 </v>
   <v>       0.68750000       0.68750000       0.43750000 </v>
   <v>       0.18750000       0.18750000       0.93750000 </v>
   <v>       0.68750000       0.18750000       0.93750000 </v>
   <v>       0.18750000       0.68750000       0.93750000 </v>
   <v>       0.68750000       0.68750000       0.93750000 </v>
   <v>       0.06250000       0.06250000       0.06250000 </v>
   <v>       0.56250000       0.06250000       0.06250000 </v>
   <v>       0.06250000       0.56250000       0.06250000 </v>
   <v>       0.56250000       0.56250000       0.06250000 </v>
   <v>       0.06250000       0.06250000       0.56250000 </v>
   <v>       0.56250000       0.06250000       0.56250000 </v>
   <v>       0.06250000       0.56250000       0.56250000 </v>
   <v>       0.56250000       0.56250000       0.56250000 </v>
   <v>       0.06250000       0.31250000       0.31250000 </v>
   <v>       0.56250000       0.31250000       0.31250000 </v>
   <v>       0.06250000       0.81250000       0.31250000 </v>
   <v>       0.56250000       0.81250000       0.31250000 </v>
   <v>       0.06250000       0.31250000       0.81250000 </v>
   <v>       0.56250000       0.31250000       0.81250000 </v>
   <v>       0.06250000       0.81250000       0.81250000 </v>
   <v>       0.56250000       0.81250000       0.81250000 </v>
   <v>       0.31250000       0.06250000       0.31250000 </v>
   <v>       0.81250000       0.06250000       0.31250000 </v>
   <v>       0.31250000       0.56250000       0.31250000 </v>
   <v>       0.81250000       0.56250000       0.31250000 </v>
   <v>       0.31250000       0.06250000       0.81250000 </v>
   <v>       0.81250000       0.06250000       0.81250000 </v>
   <v>       0.31250000       0.56250000       0.81250000 </v>
   <v>       0.81250000       0.56250000       0.81250000 </v>
   <v>       0.31250000       0.31250000       0.06250000 </v>
   <v>       0.81250000       0.31250000       0.06250000 </v>
   <v>       0.31250000       0.81250000       0.06250000 </v>
   <v>       0.81250000       0.81250000       0.06250000 </v>
   <v>       0.31250000       0.31250000       0.56250000 </v>
   <v>       0.81250000       0.31250000       0.56250000 </v>
   <v>       0.31250000       0.81250000       0.56250000 </v>
   <v>       0.81250000       0.81250000       0.56250000 </v>
  </varray>
 </structure>
 <calculation>
  <scstep>
   <time name="dav">    5.50    5.50</time>
   <time name="total">    5.78    5.79</time>
   <energy>
    <i name="alphaZ">    105.52440745 </i>
    <i name="ewald">  -7265.47001522 </i>
    <i name="hartreedc">   -361.71362453 </i>
    <i name="XCdc">   -597.75714142 </i>
    <i name="pawpsdc">   5639.92317535 </i>
    <i name="pawaedc">  -4513.95313856 </i>
    <i name="eentropy">     -0.00122210 </i>
    <i name="bandstr">    856.89010061 </i>
    <i name="atom">   6596.14994790 </i>
    <i name="e_fr_energy">    459.59248949 </i>
    <i name="e_wo_entrp">    459.59371159 </i>
    <i name="e_0_energy">    459.59310054 </i>
   </energy>
  </scstep>
  <scstep>
   <time name="dav">    6.30    6.30</time>
   <time name="total">    6.30    6.31</time>
   <energy>
    <i name="e_fr_energy">   -299.63834261 </i>
    <i name="e_wo_entrp">   -299.63834261 </i>
    <i name="e_0_energy">   -299.63834261 </i>
   </energy>
  </scstep>
  <scstep>
   <time name="dav">    6.38    6.38</time>
   <time name="total">    6.38    6.39</time>
   <energy>
    <i name="e_fr_energy">   -350.91330451 </i>
    <i name="e_wo_entrp">   -350.91330451 </i>
    <i name="e_0_energy">   -350.91330451 </i>
   </energy>
  </scstep>
  <scstep>
   <time name="dav">    6.35    6.36</time>
   <time name="total">    6.35    6.37</time>
   <energy>
    <i name="e_fr_energy">   -352.26577007 </i>
    <i name="e_wo_entrp">   -352.26577007 </i>
    <i name="e_0_energy">   -352.26577007 </i>
   </energy>
  </scstep>
  <scstep>
   <time name="dav">    6.33    6.34</time>
   <time name="total">    6.64    6.66</time>
   <energy>
    <i name="e_fr_energy">   -352.31309916 </i>
    <i name="e_wo_entrp">   -352.31309916 </i>
    <i name="e_0_energy">   -352.31309916 </i>
   </energy>
  </scstep>
  <scstep>
   <time name="dav">    6.14    6.14</time>
   <time name="total">    6.71    6.73</time>
   <energy>
    <i name="e_fr_energy">   -348.58451943 </i>
    <i name="e_wo_entrp">   -348.58451943 </i>
    <i name="e_0_energy">   -348.58451943 </i>
   </energy>
  </scstep>
  <scstep>
   <time name="dav">    6.14    6.15</time>
   <time name="total">    6.71    6.72</time>
   <energy>
    <i name="e_fr_energy">   -346.87184919 </i>
    <i name="e_wo_entrp">   -346.87184919 </i>
    <i name="e_0_energy">   -346.87184919 </i>
   </energy>
  </scstep>
  <scstep>
   <time name="dav">    6.15    6.15</time>
   <time name="total">    6.71    6.73</time>
   <energy>
    <i name="e_fr_energy">   -346.89816674 </i>
    <i name="e_wo_entrp">   -346.89816674 </i>
    <i name="e_0_energy">   -346.89816674 </i>
   </energy>
  </scstep>
  <scstep>
   <time name="dav">    6.47    6.47</time>
   <time name="total">    7.04    7.05</time>
   <energy>
    <i name="e_fr_energy">   -346.90490182 </i>
    <i name="e_wo_entrp">   -346.90490182 </i>
    <i name="e_0_energy">   -346.90490182 </i>
   </energy>
  </scstep>
  <scstep>
   <time name="dav">    5.95    5.96</time>
   <time name="total">    6.53    6.55</time>
   <energy>
    <i name="e_fr_energy">   -346.90694476 </i>
    <i name="e_wo_entrp">   -346.90694476 </i>
    <i name="e_0_energy">   -346.90694476 </i>
   </energy>
  </scstep>
  <scstep>
   <time name="dav">    6.31    6.32</time>
   <time name="total">    6.88    6.90</time>
   <energy>
    <i name="e_fr_energy">   -346.90692312 </i>
    <i name="e_wo_entrp">   -346.90692312 </i>
    <i name="e_0_energy">   -346.90692312 </i>
   </energy>
  </scstep>
  <scstep>
   <time name="dav">    6.26    6.27</time>
   <time name="total">    6.83    6.85</time>
   <energy>
    <i name="e_fr_energy">   -346.90693771 </i>
    <i name="e_wo_entrp">   -346.90693771 </i>
    <i name="e_0_energy">   -346.90693771 </i>
   </energy>
  </scstep>
  <scstep>
   <time name="dav">    6.16    6.17</time>
   <time name="total">    6.73    6.75</time>
   <energy>
    <i name="e_fr_energy">   -346.90693823 </i>
    <i name="e_wo_entrp">   -346.90693823 </i>
    <i name="e_0_energy">   -346.90693823 </i>
   </energy>
  </scstep>
  <scstep>
   <time name="dav">    6.32    6.35</time>
   <time name="total">    6.89    6.92</time>
   <energy>
    <i name="e_fr_energy">   -346.90693878 </i>
    <i name="e_wo_entrp">   -346.90693878 </i>
    <i name="e_0_energy">   -346.90693878 </i>
   </energy>
  </scstep>
  <scstep>
   <time name="dav">    5.29    5.31</time>
   <time name="total">    5.87    6.11</time>
   <energy>
    <i name="e_fr_energy">   -346.90693855 </i>
    <i name="e_wo_entrp">   -346.90693855 </i>
    <i name="e_0_energy">   -346.90693855 </i>
   </energy>
  </scstep>
  <scstep>
   <time name="dav">    4.27    4.28</time>
   <time name="total">    4.85    4.87</time>
   <energy>
    <i name="e_fr_energy">   -346.90693862 </i>
    <i name="e_wo_entrp">   -346.90693862 </i>
    <i name="e_0_energy">   -346.90693862 </i>
   </energy>
  </scstep>
  <scstep>
   <time name="dav">    4.23    4.24</time>
   <time name="total">    4.49    4.51</time>
   <energy>
    <i name="alphaZ">    105.52440745 </i>
    <i name="ewald">  -7265.47001522 </i>
    <i name="hartreedc">   -485.14435414 </i>
    <i name="XCdc">   -577.61230588 </i>
    <i name="pawpsdc">  27883.38651843 </i>
    <i name="pawaedc"> -26764.10443071 </i>
    <i name="eentropy">      0.00000000 </i>
    <i name="bandstr">    160.36329356 </i>
    <i name="atom">   6596.14994790 </i>
    <i name="e_fr_energy">   -346.90693861 </i>
    <i name="e_wo_entrp">   -346.90693861 </i>
    <i name="e_0_energy">   -346.90693861 </i>
   </energy>
  </scstep>
  <structure>
   <crystal>
    <varray name="basis" >
     <v>      10.93252578       0.00000000       0.00000000 </v>
     <v>       0.00000000      10.93252578       0.00000000 </v>
     <v>       0.00000000       0.00000000      10.93252578 </v>
    </varray>
    <i name="volume">   1306.65679237 </i>
    <varray name="rec_basis" >
     <v>       0.09147017       0.00000000       0.00000000 </v>
     <v>       0.00000000       0.09147017       0.00000000 </v>
     <v>       0.00000000       0.00000000       0.09147017 </v>
    </varray>
   </crystal>
   <varray name="positions" >
    <v>       0.44024411       0.43750000       0.43750000 </v>
    <v>       0.93750000       0.43750000       0.43750000 </v>
    <v>       0.43944038       0.93944038       0.43750000 </v>
    <v>       0.93750000       0.93750000       0.43750000 </v>
    <v>       0.43750000       0.43750000       0.93750000 </v>
    <v>       0.93750000       0.43750000       0.93750000 </v>
    <v>       0.43750000       0.93750000       0.93750000 </v>
    <v>       0.93750000       0.93750000       0.93750000 </v>
    <v>       0.43750000       0.18750000       0.18750000 </v>
    <v>       0.93750000       0.18750000       0.18750000 </v>
    <v>       0.43750000       0.68750000       0.18750000 </v>
    <v>       0.93750000       0.68750000       0.18750000 </v>
    <v>       0.43750000       0.18750000       0.68750000 </v>
    <v>       0.93750000       0.18750000       0.68750000 </v>
    <v>       0.43750000       0.68750000       0.68750000 </v>
    <v>       0.93750000       0.68750000       0.68750000 </v>
    <v>       0.18750000       0.43750000       0.18750000 </v>
    <v>       0.68750000       0.43750000       0.18750000 </v>
    <v>       0.18750000       0.93750000       0.18750000 </v>
    <v>       0.68750000       0.93750000       0.18750000 </v>
    <v>       0.18750000       0.43750000       0.68750000 </v>
    <v>       0.68750000       0.43750000       0.68750000 </v>
    <v>       0.18750000       0.93750000       0.68750000 </v>
    <v>       0.68750000       0.93750000       0.68750000 </v>
    <v>       0.18750000       0.18750000       0.43750000 </v>
    <v>       0.68750000       0.18750000       0.43750000 </v>
    <v>       0.18750000       0.68750000       0.43750000 </v>
    <v>       0.68750000       0.68750000       0.43750000 </v>
    <v>       0.18750000       0.18750000       0.93750000 </v>
    <v>       0.68750000       0.18750000       0.93750000 </v>
    <v>       0.18750000       0.68750000       0.93750000 </v>
    <v>       0.68750000       0.68750000       0.93750000 </v>
    <v>       0.06250000       0.06250000       0.06250000 </v>
    <v>       0.56250000       0.06250000       0.06250000 </v>
    <v>       0.06250000       0.56250000       0.06250000 </v>
    <v>       0.56250000       0.56250000       0.06250000 </v>
    <v>       0.06250000       0.06250000       0.56250000 </v>
    <v>       0.56250000       0.06250000       0.56250000 </v>
    <v>       0.06250000       0.56250000       0.56250000 </v>
    <v>       0.56250000       0.56250000       0.56250000 </v>
    <v>       0.06250000       0.31250000       0.31250000 </v>
    <v>       0.56250000       0.31250000       0.31250000 </v>
    <v>       0.06250000       0.81250000       0.31250000 </v>
    <v>       0.56250000       0.81250000       0.31250000 </v>
    <v>       0.06250000       0.31250000       0.81250000 </v>
    <v>       0.56250000       0.31250000       0.81250000 </v>
    <v>       0.06250000       0.81250000       0.81250000 </v>
    <v>       0.56250000       0.81250000       0.81250000 </v>
    <v>       0.31250000       0.06250000       0.31250000 </v>
    <v>       0.81250000       0.06250000       0.31250000 </v>
    <v>       0.31250000       0.56250000       0.31250000 </v>
    <v>       0.81250000       0.56250000       0.31250000 </v>
    <v>       0.31250000       0.06250000       0.81250000 </v>
    <v>       0.81250000       0.06250000       0.81250000 </v>
    <v>       0.31250000       0.56250000       0.81250000 </v>
    <v>       0.81250000       0.56250000       0.81250000 </v>
    <v>       0.31250000       0.31250000       0.06250000 </v>
    <v>       0.81250000       0.31250000       0.06250000 </v>
    <v>       0.31250000       0.81250000       0.06250000 </v>
    <v>       0.81250000       0.81250000       0.06250000 </v>
    <v>       0.31250000       0.31250000       0.56250000 </v>
    <v>       0.81250000       0.31250000       0.56250000 </v>
    <v>       0.31250000       0.81250000       0.56250000 </v>
    <v>       0.81250000       0.81250000       0.56250000 </v>
   </varray>
  </structure>
  <varray name="forces" >
   <v>      -0.38620501       0.00038771       0.00002121 </v>
   <v>       0.00042460      -0.00012491       0.00001514 </v>
   <v>      -0.27270030      -0.27401675      -0.01406788 </v>
   <v>       0.00021266       0.00093146       0.00001331 </v>
   <v>      -0.00685089      -0.00012435      -0.00000170 </v>
   <v>       0.00023226       0.00040705       0.00000395 </v>
   <v>      -0.01062028       0.00093160       0.00000371 </v>
   <v>       0.00045274      -0.00816717      -0.00000339 </v>
   <v>      -0.02387187       0.00872471      -0.00316704 </v>
   <v>      -0.00019257       0.00111928       0.00136998 </v>
   <v>      -0.02378031       0.00865568       0.00319463 </v>
   <v>      -0.00017757       0.00110762      -0.00138696 </v>
   <v>      -0.01992042      -0.00049590       0.00470413 </v>
   <v>       0.00014480       0.00032105      -0.00123615 </v>
   <v>      -0.02003207      -0.00068825      -0.00484044 </v>
   <v>       0.00013647       0.00033563       0.00125032 </v>
   <v>       0.00652464      -0.00285203       0.00440505 </v>
   <v>       0.00669186      -0.00293444      -0.00454601 </v>
   <v>       0.00701663      -0.01123184       0.00400455 </v>
   <v>       0.00696377      -0.01122133      -0.00408640 </v>
   <v>       0.00621148       0.00283542      -0.00408356 </v>
   <v>       0.00635393       0.00291200       0.00421806 </v>
   <v>       0.00309663      -0.00691083      -0.00021603 </v>
   <v>       0.00319588      -0.00692088       0.00018204 </v>
   <v>       0.00574263       0.00560928      -0.00271921 </v>
   <v>       0.01398175       0.00250029       0.00112392 </v>
   <v>       0.01351699       0.00230166      -0.00112185 </v>
   <v>       0.00584974       0.00578203       0.00272170 </v>
   <v>       0.00304187       0.00017974      -0.00023123 </v>
   <v>       0.00042951       0.00125733       0.00009439 </v>
   <v>       0.00042872       0.00127102      -0.00009647 </v>
   <v>       0.00306147       0.00017667       0.00022956 </v>
   <v>       0.00039199       0.00561188       0.00165614 </v>
   <v>       0.00605845       0.00053260       0.00197030 </v>
   <v>       0.00077706       0.00081453       0.00166023 </v>
   <v>       0.00337728       0.00213833       0.00182793 </v>
   <v>       0.00107304       0.00021150       0.00215847 </v>
   <v>       0.11489136       0.11729805       0.09740931 </v>
   <v>       0.00057579       0.00175927       0.00184362 </v>
   <v>       0.09541415       0.06656263       0.06760702 </v>
   <v>      -0.00026352      -0.00089224      -0.00088824 </v>
   <v>       0.09411011      -0.06695643      -0.06633864 </v>
   <v>      -0.00021016      -0.00225160      -0.00042133 </v>
   <v>       0.01978473       0.02162871      -0.00017662 </v>
   <v>      -0.00029133      -0.00156131      -0.00061106 </v>
   <v>       0.00240894      -0.00123026      -0.00097037 </v>
   <v>      -0.00057267       0.00312476      -0.00071476 </v>
   <v>       0.00426566      -0.00253737      -0.00071886 </v>
   <v>       0.02112093       0.02037133       0.00228170 </v>
   <v>      -0.00018453      -0.00232862       0.00048429 </v>
   <v>       0.09142861      -0.06178739       0.06118536 </v>
   <v>      -0.00026235      -0.00089487       0.00092550 </v>
   <v>       0.00428871      -0.00261722       0.00064215 </v>
   <v>      -0.00055411       0.00314355       0.00070001 </v>
   <v>       0.00245054      -0.00128603       0.00092942 </v>
   <v>      -0.00024561      -0.00161788       0.00062908 </v>
   <v>       0.00340874       0.00218597      -0.00182577 </v>
   <v>       0.00080717       0.00085049      -0.00170182 </v>
   <v>       0.00597157       0.00050996      -0.00195662 </v>
   <v>       0.00040535       0.00558329      -0.00168391 </v>
   <v>       0.09269099       0.06139622      -0.06248159 </v>
   <v>       0.00065377       0.00183626      -0.00189291 </v>
   <v>       0.10577181       0.10808798      -0.08505660 </v>
   <v>       0.00109779       0.00025537      -0.00222274 </v>
  </varray>
  <varray name="stress" >
   <v>      -0.00810241       0.01216739       0.23690262 </v>
   <v>       0.01216739       0.01147479       0.57175513 </v>
   <v>       0.23690268       0.57175513       0.02103961 </v>
  </varray>
  <energy>
   <i name="e_fr_energy">   -346.90693861 </i>
   <i name="e_wo_entrp">   -346.90693861 </i>
   <i name="e_0_energy">      0.00000000 </i>
  </energy>
  <time name="totalsc">  119.48  120.04</time>
  <eigenvalues>
   <array>
    <dimension dim="1">band</dimension>
    <dimension dim="2">kpoint</dimension>
    <dimension dim="3">spin</dimension>
    <field>eigene</field>
    <field>occ</field>
    <set>
     <set comment="spin 1">
      <set comment="kpoint 1">
       <r>   -5.9931    1.0000 </r>
       <r>   -5.4683    1.0000 </r>
       <r>   -5.4645    1.0000 </r>
       <r>   -5.4618    1.0000 </r>
       <r>   -4.9687    1.0000 </r>
       <r>   -4.9651    1.0000 </r>
       <r>   -4.9626    1.0000 </r>
       <r>   -4.5310    1.0000 </r>
       <r>   -4.4355    1.0000 </r>
       <r>   -4.4317    1.0000 </r>
       <r>   -4.4289    1.0000 </r>
       <r>   -4.0240    1.0000 </r>
       <r>   -4.0212    1.0000 </r>
       <r>   -4.0164    1.0000 </r>
       <r>   -4.0152    1.0000 </r>
       <r>   -4.0131    1.0000 </r>
       <r>   -4.0123    1.0000 </r>
       <r>   -3.8305    1.0000 </r>
       <r>   -3.8236    1.0000 </r>
       <r>   -3.8211    1.0000 </r>
       <r>   -3.3298    1.0000 </r>
       <r>   -3.3264    1.0000 </r>
       <r>   -3.3223    1.0000 </r>
       <r>   -2.9651    1.0000 </r>
       <r>   -2.9582    1.0000 </r>
       <r>   -2.9556    1.0000 </r>
       <r>   -2.7984    1.0000 </r>
       <r>   -2.7948    1.0000 </r>
       <r>   -2.7908    1.0000 </r>
       <r>   -2.7893    1.0000 </r>
       <r>   -2.7878    1.0000 </r>
       <r>   -2.7859    1.0000 </r>
       <r>   -1.2554    1.0000 </r>
       <r>   -1.2511    1.0000 </r>
       <r>   -1.2485    1.0000 </r>
       <r>   -1.2469    1.0000 </r>
       <r>   -1.2448    1.0000 </r>
       <r>   -1.2430    1.0000 </r>
       <r>   -1.1549    1.0000 </r>
       <r>   -1.1492    1.0000 </r>
       <r>   -1.1457    1.0000 </r>
       <r>   -1.0354    1.0000 </r>
       <r>   -1.0316    1.0000 </r>
       <r>   -1.0255    1.0000 </r>
       <r>   -0.9579    1.0000 </r>
       <r>   -0.9512    1.0000 </r>
       <r>   -0.9458    1.0000 </r>
       <r>   -0.2489    1.0000 </r>
       <r>   -0.1658    1.0000 </r>
       <r>   -0.1609    1.0000 </r>
       <r>   -0.1599    1.0000 </r>
       <r>   -0.1564    1.0000 </r>
       <r>   -0.1547    1.0000 </r>
       <r>   -0.1526    1.0000 </r>
       <r>    0.7074    1.0000 </r>
       <r>    0.7114    1.0000 </r>
       <r>    0.7157    1.0000 </r>
       <r>    1.0433    1.0000 </r>
       <r>    1.0475    1.0000 </r>
       <r>    1.0505    1.0000 </r>
       <r>    1.6521    1.0000 </r>
       <r>    1.6554    1.0000 </r>
       <r>    1.6565    1.0000 </r>
       <r>    1.6585    1.0000 </r>
       <r>    1.6594    1.0000 </r>
       <r>    1.6607    1.0000 </r>
       <r>    1.7149    1.0000 </r>
       <r>    1.7173    1.0000 </r>
       <r>    1.7199    1.0000 </r>
       <r>    2.2622    1.0000 </r>
       <r>    2.2667    1.0000 </r>
       <r>    2.2677    1.0000 </r>
       <r>    2.3687    1.0000 </r>
       <r>    2.3692    1.0000 </r>
       <r>    2.3711    1.0000 </r>
       <r>    2.3717    1.0000 </r>
       <r>    2.3753    1.0000 </r>
       <r>    2.3783    1.0000 </r>
       <r>    2.4242    1.0000 </r>
       <r>    2.4279    1.0000 </r>
       <r>    2.4306    1.0000 </r>
       <r>    2.7301    1.0000 </r>
       <r>    2.7323    1.0000 </r>
       <r>    2.7341    1.0000 </r>
       <r>    2.7355    1.0000 </r>
       <r>    2.7372    1.0000 </r>
       <r>    2.7391    1.0000 </r>
       <r>    2.9990    1.0000 </r>
       <r>    3.0000    1.0000 </r>
       <r>    3.0025    1.0000 </r>
       <r>    3.0114    1.0000 </r>
       <r>    3.0151    1.0000 </r>
       <r>    3.0189    1.0000 </r>
       <r>    3.3553    1.0000 </r>
       <r>    3.3600    1.0000 </r>
       <r>    3.3621    1.0000 </r>
       <r>    3.3760    1.0000 </r>
       <r>    3.3827    1.0000 </r>
       <r>    3.3849    1.0000 </r>
       <r>    3.4658    1.0000 </r>
       <r>    3.4681    1.0000 </r>
       <r>    3.4700    1.0000 </r>
       <r>    3.7284    1.0000 </r>
       <r>    3.7352    1.0000 </r>
       <r>    3.7390    1.0000 </r>
       <r>    3.7417    1.0000 </r>
       <r>    3.7420    1.0000 </r>
       <r>    3.7428    1.0000 </r>
       <r>    3.7799    1.0000 </r>
       <r>    3.7823    1.0000 </r>
       <r>    3.7844    1.0000 </r>
       <r>    4.0359    1.0000 </r>
       <r>    4.0985    1.0000 </r>
       <r>    4.0992    1.0000 </r>
       <r>    4.1042    1.0000 </r>
       <r>    4.3406    1.0000 </r>
       <r>    4.3436    1.0000 </r>
       <r>    4.3457    1.0000 </r>
       <r>    4.3957    1.0000 </r>
       <r>    4.4005    1.0000 </r>
       <r>    4.4049    1.0000 </r>
       <r>    4.5607    1.0000 </r>
       <r>    4.5678    1.0000 </r>
       <r>    4.8696    1.0000 </r>
       <r>    4.8736    1.0000 </r>
       <r>    4.8766    1.0000 </r>
       <r>    5.3484    1.0000 </r>
       <r>    5.3564    1.0000 </r>
       <r>    6.5611    0.0000 </r>
       <r>    6.5671    0.0000 </r>
       <r>    6.5678    0.0000 </r>
       <r>    7.0027    0.0000 </r>
       <r>    7.0055    0.0000 </r>
       <r>    7.0079    0.0000 </r>
       <r>    7.2355    0.0000 </r>
       <r>    7.4899    0.0000 </r>
       <r>    7.4925    0.0000 </r>
       <r>    7.4955    0.0000 </r>
       <r>    7.6144    0.0000 </r>
       <r>    7.6164    0.0000 </r>
       <r>    7.6231    0.0000 </r>
       <r>    7.7779    0.0000 </r>
       <r>    7.7798    0.0000 </r>
       <r>    7.7833    0.0000 </r>
       <r>    7.7993    0.0000 </r>
       <r>    7.8011    0.0000 </r>
       <r>    7.8058    0.0000 </r>
       <r>    8.0228    0.0000 </r>
       <r>    8.0251    0.0000 </r>
       <r>    8.0267    0.0000 </r>
       <r>    8.0308    0.0000 </r>
       <r>    8.0312    0.0000 </r>
       <r>    8.0338    0.0000 </r>
       <r>    8.0844    0.0000 </r>
       <r>    8.2930    0.0000 </r>
       <r>    8.2952    0.0000 </r>
       <r>    8.2975    0.0000 </r>
       <r>    8.4962    0.0000 </r>
       <r>    8.4986    0.0000 </r>
       <r>    8.5016    0.0000 </r>
       <r>    8.5055    0.0000 </r>
       <r>    8.5089    0.0000 </r>
       <r>    8.5215    0.0000 </r>
       <r>    8.5493    0.0000 </r>
      </set>
      <set comment="kpoint 2">
       <r>   -5.9931    1.0000 </r>
       <r>   -5.4676    1.0000 </r>
       <r>   -5.4651    1.0000 </r>
       <r>   -5.4618    1.0000 </r>
       <r>   -4.9681    1.0000 </r>
       <r>   -4.9661    1.0000 </r>
       <r>   -4.9623    1.0000 </r>
       <r>   -4.5316    1.0000 </r>
       <r>   -4.4353    1.0000 </r>
       <r>   -4.4324    1.0000 </r>
       <r>   -4.4292    1.0000 </r>
       <r>   -4.0264    1.0000 </r>
       <r>   -4.0192    1.0000 </r>
       <r>   -4.0165    1.0000 </r>
       <r>   -4.0155    1.0000 </r>
       <r>   -4.0132    1.0000 </r>
       <r>   -4.0095    1.0000 </r>
       <r>   -3.8306    1.0000 </r>
       <r>   -3.8230    1.0000 </r>
       <r>   -3.8201    1.0000 </r>
       <r>   -3.3305    1.0000 </r>
       <r>   -3.3287    1.0000 </r>
       <r>   -3.3233    1.0000 </r>
       <r>   -2.9664    1.0000 </r>
       <r>   -2.9577    1.0000 </r>
       <r>   -2.9544    1.0000 </r>
       <r>   -2.7998    1.0000 </r>
       <r>   -2.7935    1.0000 </r>
       <r>   -2.7911    1.0000 </r>
       <r>   -2.7895    1.0000 </r>
       <r>   -2.7877    1.0000 </r>
       <r>   -2.7840    1.0000 </r>
       <r>   -1.2567    1.0000 </r>
       <r>   -1.2538    1.0000 </r>
       <r>   -1.2489    1.0000 </r>
       <r>   -1.2483    1.0000 </r>
       <r>   -1.2450    1.0000 </r>
       <r>   -1.2396    1.0000 </r>
       <r>   -1.1573    1.0000 </r>
       <r>   -1.1490    1.0000 </r>
       <r>   -1.1446    1.0000 </r>
       <r>   -1.0389    1.0000 </r>
       <r>   -1.0317    1.0000 </r>
       <r>   -1.0256    1.0000 </r>
       <r>   -0.9533    1.0000 </r>
       <r>   -0.9474    1.0000 </r>
       <r>   -0.9454    1.0000 </r>
       <r>   -0.2464    1.0000 </r>
       <r>   -0.1676    1.0000 </r>
       <r>   -0.1657    1.0000 </r>
       <r>   -0.1607    1.0000 </r>
       <r>   -0.1598    1.0000 </r>
       <r>   -0.1553    1.0000 </r>
       <r>   -0.1474    1.0000 </r>
       <r>    0.7105    1.0000 </r>
       <r>    0.7131    1.0000 </r>
       <r>    0.7158    1.0000 </r>
       <r>    1.0419    1.0000 </r>
       <r>    1.0484    1.0000 </r>
       <r>    1.0510    1.0000 </r>
       <r>    1.6517    1.0000 </r>
       <r>    1.6545    1.0000 </r>
       <r>    1.6572    1.0000 </r>
       <r>    1.6580    1.0000 </r>
       <r>    1.6596    1.0000 </r>
       <r>    1.6613    1.0000 </r>
       <r>    1.7132    1.0000 </r>
       <r>    1.7170    1.0000 </r>
       <r>    1.7195    1.0000 </r>
       <r>    2.2633    1.0000 </r>
       <r>    2.2677    1.0000 </r>
       <r>    2.2693    1.0000 </r>
       <r>    2.3654    1.0000 </r>
       <r>    2.3695    1.0000 </r>
       <r>    2.3702    1.0000 </r>
       <r>    2.3722    1.0000 </r>
       <r>    2.3750    1.0000 </r>
       <r>    2.3766    1.0000 </r>
       <r>    2.4213    1.0000 </r>
       <r>    2.4273    1.0000 </r>
       <r>    2.4296    1.0000 </r>
       <r>    2.7297    1.0000 </r>
       <r>    2.7315    1.0000 </r>
       <r>    2.7343    1.0000 </r>
       <r>    2.7350    1.0000 </r>
       <r>    2.7368    1.0000 </r>
       <r>    2.7417    1.0000 </r>
       <r>    2.9965    1.0000 </r>
       <r>    2.9997    1.0000 </r>
       <r>    3.0029    1.0000 </r>
       <r>    3.0093    1.0000 </r>
       <r>    3.0157    1.0000 </r>
       <r>    3.0178    1.0000 </r>
       <r>    3.3590    1.0000 </r>
       <r>    3.3605    1.0000 </r>
       <r>    3.3636    1.0000 </r>
       <r>    3.3779    1.0000 </r>
       <r>    3.3843    1.0000 </r>
       <r>    3.3863    1.0000 </r>
       <r>    3.4646    1.0000 </r>
       <r>    3.4659    1.0000 </r>
       <r>    3.4711    1.0000 </r>
       <r>    3.7309    1.0000 </r>
       <r>    3.7385    1.0000 </r>
       <r>    3.7396    1.0000 </r>
       <r>    3.7417    1.0000 </r>
       <r>    3.7438    1.0000 </r>
       <r>    3.7453    1.0000 </r>
       <r>    3.7783    1.0000 </r>
       <r>    3.7800    1.0000 </r>
       <r>    3.7858    1.0000 </r>
       <r>    4.0386    1.0000 </r>
       <r>    4.0958    1.0000 </r>
       <r>    4.0981    1.0000 </r>
       <r>    4.1034    1.0000 </r>
       <r>    4.3388    1.0000 </r>
       <r>    4.3405    1.0000 </r>
       <r>    4.3464    1.0000 </r>
       <r>    4.4004    1.0000 </r>
       <r>    4.4047    1.0000 </r>
       <r>    4.4057    1.0000 </r>
       <r>    4.5585    1.0000 </r>
       <r>    4.5685    1.0000 </r>
       <r>    4.8671    1.0000 </r>
       <r>    4.8696    1.0000 </r>
       <r>    4.8776    1.0000 </r>
       <r>    5.3451    1.0000 </r>
       <r>    5.3566    1.0000 </r>
       <r>    6.5592    0.0000 </r>
       <r>    6.5652    0.0000 </r>
       <r>    6.5681    0.0000 </r>
       <r>    7.0011    0.0000 </r>
       <r>    7.0035    0.0000 </r>
       <r>    7.0098    0.0000 </r>
       <r>    7.2344    0.0000 </r>
       <r>    7.4882    0.0000 </r>
       <r>    7.4898    0.0000 </r>
       <r>    7.4963    0.0000 </r>
       <r>    7.6141    0.0000 </r>
       <r>    7.6177    0.0000 </r>
       <r>    7.6248    0.0000 </r>
       <r>    7.7772    0.0000 </r>
       <r>    7.7798    0.0000 </r>
       <r>    7.7832    0.0000 </r>
       <r>    7.7974    0.0000 </r>
       <r>    7.8010    0.0000 </r>
       <r>    7.8062    0.0000 </r>
       <r>    8.0239    0.0000 </r>
       <r>    8.0254    0.0000 </r>
       <r>    8.0291    0.0000 </r>
       <r>    8.0303    0.0000 </r>
       <r>    8.0321    0.0000 </r>
       <r>    8.0370    0.0000 </r>
       <r>    8.0827    0.0000 </r>
       <r>    8.2924    0.0000 </r>
       <r>    8.2940    0.0000 </r>
       <r>    8.2988    0.0000 </r>
       <r>    8.4950    0.0000 </r>
       <r>    8.4972    0.0000 </r>
       <r>    8.5019    0.0000 </r>
       <r>    8.5060    0.0000 </r>
       <r>    8.5090    0.0000 </r>
       <r>    8.5275    0.0000 </r>
       <r>    8.5409    0.0000 </r>
      </set>
      <set comment="kpoint 3">
       <r>   -5.9932    1.0000 </r>
       <r>   -5.4678    1.0000 </r>
       <r>   -5.4644    1.0000 </r>
       <r>   -5.4619    1.0000 </r>
       <r>   -4.9687    1.0000 </r>
       <r>   -4.9649    1.0000 </r>
       <r>   -4.9630    1.0000 </r>
       <r>   -4.5326    1.0000 </r>
       <r>   -4.4358    1.0000 </r>
       <r>   -4.4325    1.0000 </r>
       <r>   -4.4296    1.0000 </r>
       <r>   -4.0236    1.0000 </r>
       <r>   -4.0197    1.0000 </r>
       <r>   -4.0173    1.0000 </r>
       <r>   -4.0162    1.0000 </r>
       <r>   -4.0136    1.0000 </r>
       <r>   -4.0072    1.0000 </r>
       <r>   -3.8284    1.0000 </r>
       <r>   -3.8256    1.0000 </r>
       <r>   -3.8176    1.0000 </r>
       <r>   -3.3335    1.0000 </r>
       <r>   -3.3281    1.0000 </r>
       <r>   -3.3261    1.0000 </r>
       <r>   -2.9642    1.0000 </r>
       <r>   -2.9606    1.0000 </r>
       <r>   -2.9526    1.0000 </r>
       <r>   -2.7975    1.0000 </r>
       <r>   -2.7939    1.0000 </r>
       <r>   -2.7922    1.0000 </r>
       <r>   -2.7907    1.0000 </r>
       <r>   -2.7883    1.0000 </r>
       <r>   -2.7813    1.0000 </r>
       <r>   -1.2591    1.0000 </r>
       <r>   -1.2527    1.0000 </r>
       <r>   -1.2489    1.0000 </r>
       <r>   -1.2484    1.0000 </r>
       <r>   -1.2439    1.0000 </r>
       <r>   -1.2418    1.0000 </r>
       <r>   -1.1565    1.0000 </r>
       <r>   -1.1530    1.0000 </r>
       <r>   -1.1440    1.0000 </r>
       <r>   -1.0402    1.0000 </r>
       <r>   -1.0339    1.0000 </r>
       <r>   -1.0270    1.0000 </r>
       <r>   -0.9481    1.0000 </r>
       <r>   -0.9461    1.0000 </r>
       <r>   -0.9398    1.0000 </r>
       <r>   -0.2429    1.0000 </r>
       <r>   -0.1726    1.0000 </r>
       <r>   -0.1650    1.0000 </r>
       <r>   -0.1605    1.0000 </r>
       <r>   -0.1596    1.0000 </r>
       <r>   -0.1546    1.0000 </r>
       <r>   -0.1527    1.0000 </r>
       <r>    0.7128    1.0000 </r>
       <r>    0.7154    1.0000 </r>
       <r>    0.7180    1.0000 </r>
       <r>    1.0431    1.0000 </r>
       <r>    1.0459    1.0000 </r>
       <r>    1.0523    1.0000 </r>
       <r>    1.6526    1.0000 </r>
       <r>    1.6545    1.0000 </r>
       <r>    1.6559    1.0000 </r>
       <r>    1.6567    1.0000 </r>
       <r>    1.6595    1.0000 </r>
       <r>    1.6623    1.0000 </r>
       <r>    1.7126    1.0000 </r>
       <r>    1.7149    1.0000 </r>
       <r>    1.7190    1.0000 </r>
       <r>    2.2660    1.0000 </r>
       <r>    2.2679    1.0000 </r>
       <r>    2.2720    1.0000 </r>
       <r>    2.3652    1.0000 </r>
       <r>    2.3669    1.0000 </r>
       <r>    2.3695    1.0000 </r>
       <r>    2.3711    1.0000 </r>
       <r>    2.3722    1.0000 </r>
       <r>    2.3763    1.0000 </r>
       <r>    2.4209    1.0000 </r>
       <r>    2.4224    1.0000 </r>
       <r>    2.4287    1.0000 </r>
       <r>    2.7281    1.0000 </r>
       <r>    2.7331    1.0000 </r>
       <r>    2.7348    1.0000 </r>
       <r>    2.7356    1.0000 </r>
       <r>    2.7383    1.0000 </r>
       <r>    2.7401    1.0000 </r>
       <r>    2.9953    1.0000 </r>
       <r>    2.9993    1.0000 </r>
       <r>    3.0012    1.0000 </r>
       <r>    3.0089    1.0000 </r>
       <r>    3.0119    1.0000 </r>
       <r>    3.0183    1.0000 </r>
       <r>    3.3604    1.0000 </r>
       <r>    3.3637    1.0000 </r>
       <r>    3.3646    1.0000 </r>
       <r>    3.3823    1.0000 </r>
       <r>    3.3846    1.0000 </r>
       <r>    3.3905    1.0000 </r>
       <r>    3.4622    1.0000 </r>
       <r>    3.4674    1.0000 </r>
       <r>    3.4687    1.0000 </r>
       <r>    3.7373    1.0000 </r>
       <r>    3.7387    1.0000 </r>
       <r>    3.7410    1.0000 </r>
       <r>    3.7428    1.0000 </r>
       <r>    3.7441    1.0000 </r>
       <r>    3.7512    1.0000 </r>
       <r>    3.7756    1.0000 </r>
       <r>    3.7819    1.0000 </r>
       <r>    3.7831    1.0000 </r>
       <r>    4.0424    1.0000 </r>
       <r>    4.0926    1.0000 </r>
       <r>    4.0975    1.0000 </r>
       <r>    4.1005    1.0000 </r>
       <r>    4.3356    1.0000 </r>
       <r>    4.3413    1.0000 </r>
       <r>    4.3432    1.0000 </r>
       <r>    4.4059    1.0000 </r>
       <r>    4.4068    1.0000 </r>
       <r>    4.4118    1.0000 </r>
       <r>    4.5571    1.0000 </r>
       <r>    4.5675    1.0000 </r>
       <r>    4.8630    1.0000 </r>
       <r>    4.8705    1.0000 </r>
       <r>    4.8730    1.0000 </r>
       <r>    5.3428    1.0000 </r>
       <r>    5.3543    1.0000 </r>
       <r>    6.5584    0.0000 </r>
       <r>    6.5617    0.0000 </r>
       <r>    6.5675    0.0000 </r>
       <r>    6.9992    0.0000 </r>
       <r>    7.0054    0.0000 </r>
       <r>    7.0077    0.0000 </r>
       <r>    7.2330    0.0000 </r>
       <r>    7.4849    0.0000 </r>
       <r>    7.4917    0.0000 </r>
       <r>    7.4930    0.0000 </r>
       <r>    7.6141    0.0000 </r>
       <r>    7.6218    0.0000 </r>
       <r>    7.6248    0.0000 </r>
       <r>    7.7768    0.0000 </r>
       <r>    7.7799    0.0000 </r>
       <r>    7.7822    0.0000 </r>
       <r>    7.7961    0.0000 </r>
       <r>    7.8011    0.0000 </r>
       <r>    7.8053    0.0000 </r>
       <r>    8.0231    0.0000 </r>
       <r>    8.0292    0.0000 </r>
       <r>    8.0310    0.0000 </r>
       <r>    8.0321    0.0000 </r>
       <r>    8.0356    0.0000 </r>
       <r>    8.0371    0.0000 </r>
       <r>    8.0805    0.0000 </r>
       <r>    8.2912    0.0000 </r>
       <r>    8.2959    0.0000 </r>
       <r>    8.2975    0.0000 </r>
       <r>    8.4926    0.0000 </r>
       <r>    8.5007    0.0000 </r>
       <r>    8.5025    0.0000 </r>
       <r>    8.5068    0.0000 </r>
       <r>    8.5100    0.0000 </r>
       <r>    8.5192    0.0000 </r>
       <r>    8.5430    0.0000 </r>
      </set>
      <set comment="kpoint 4">
       <r>   -5.9932    1.0000 </r>
       <r>   -5.4677    1.0000 </r>
       <r>   -5.4649    1.0000 </r>
       <r>   -5.4612    1.0000 </r>
       <r>   -4.9686    1.0000 </r>
       <r>   -4.9658    1.0000 </r>
       <r>   -4.9623    1.0000 </r>
       <r>   -4.5334    1.0000 </r>
       <r>   -4.4362    1.0000 </r>
       <r>   -4.4330    1.0000 </r>
       <r>   -4.4294    1.0000 </r>
       <r>   -4.0208    1.0000 </r>
       <r>   -4.0198    1.0000 </r>
       <r>   -4.0176    1.0000 </r>
       <r>   -4.0163    1.0000 </r>
       <r>   -4.0116    1.0000 </r>
       <r>   -4.0094    1.0000 </r>
       <r>   -3.8276    1.0000 </r>
       <r>   -3.8250    1.0000 </r>
       <r>   -3.8179    1.0000 </r>
       <r>   -3.3343    1.0000 </r>
       <r>   -3.3303    1.0000 </r>
       <r>   -3.3268    1.0000 </r>
       <r>   -2.9628    1.0000 </r>
       <r>   -2.9600    1.0000 </r>
       <r>   -2.9536    1.0000 </r>
       <r>   -2.7958    1.0000 </r>
       <r>   -2.7938    1.0000 </r>
       <r>   -2.7925    1.0000 </r>
       <r>   -2.7910    1.0000 </r>
       <r>   -2.7869    1.0000 </r>
       <r>   -2.7829    1.0000 </r>
       <r>   -1.2551    1.0000 </r>
       <r>   -1.2529    1.0000 </r>
       <r>   -1.2506    1.0000 </r>
       <r>   -1.2488    1.0000 </r>
       <r>   -1.2464    1.0000 </r>
       <r>   -1.2426    1.0000 </r>
       <r>   -1.1559    1.0000 </r>
       <r>   -1.1529    1.0000 </r>
       <r>   -1.1470    1.0000 </r>
       <r>   -1.0402    1.0000 </r>
       <r>   -1.0339    1.0000 </r>
       <r>   -1.0304    1.0000 </r>
       <r>   -0.9478    1.0000 </r>
       <r>   -0.9421    1.0000 </r>
       <r>   -0.9355    1.0000 </r>
       <r>   -0.2404    1.0000 </r>
       <r>   -0.1674    1.0000 </r>
       <r>   -0.1653    1.0000 </r>
       <r>   -0.1639    1.0000 </r>
       <r>   -0.1604    1.0000 </r>
       <r>   -0.1594    1.0000 </r>
       <r>   -0.1545    1.0000 </r>
       <r>    0.7128    1.0000 </r>
       <r>    0.7171    1.0000 </r>
       <r>    0.7212    1.0000 </r>
       <r>    1.0437    1.0000 </r>
       <r>    1.0466    1.0000 </r>
       <r>    1.0508    1.0000 </r>
       <r>    1.6531    1.0000 </r>
       <r>    1.6547    1.0000 </r>
       <r>    1.6554    1.0000 </r>
       <r>    1.6575    1.0000 </r>
       <r>    1.6585    1.0000 </r>
       <r>    1.6616    1.0000 </r>
       <r>    1.7120    1.0000 </r>
       <r>    1.7150    1.0000 </r>
       <r>    1.7173    1.0000 </r>
       <r>    2.2678    1.0000 </r>
       <r>    2.2688    1.0000 </r>
       <r>    2.2733    1.0000 </r>
       <r>    2.3633    1.0000 </r>
       <r>    2.3665    1.0000 </r>
       <r>    2.3696    1.0000 </r>
       <r>    2.3708    1.0000 </r>
       <r>    2.3727    1.0000 </r>
       <r>    2.3732    1.0000 </r>
       <r>    2.4196    1.0000 </r>
       <r>    2.4220    1.0000 </r>
       <r>    2.4257    1.0000 </r>
       <r>    2.7308    1.0000 </r>
       <r>    2.7327    1.0000 </r>
       <r>    2.7344    1.0000 </r>
       <r>    2.7357    1.0000 </r>
       <r>    2.7375    1.0000 </r>
       <r>    2.7397    1.0000 </r>
       <r>    2.9946    1.0000 </r>
       <r>    2.9989    1.0000 </r>
       <r>    2.9996    1.0000 </r>
       <r>    3.0097    1.0000 </r>
       <r>    3.0117    1.0000 </r>
       <r>    3.0156    1.0000 </r>
       <r>    3.3617    1.0000 </r>
       <r>    3.3636    1.0000 </r>
       <r>    3.3661    1.0000 </r>
       <r>    3.3839    1.0000 </r>
       <r>    3.3859    1.0000 </r>
       <r>    3.3951    1.0000 </r>
       <r>    3.4632    1.0000 </r>
       <r>    3.4651    1.0000 </r>
       <r>    3.4676    1.0000 </r>
       <r>    3.7398    1.0000 </r>
       <r>    3.7405    1.0000 </r>
       <r>    3.7408    1.0000 </r>
       <r>    3.7432    1.0000 </r>
       <r>    3.7471    1.0000 </r>
       <r>    3.7548    1.0000 </r>
       <r>    3.7768    1.0000 </r>
       <r>    3.7789    1.0000 </r>
       <r>    3.7821    1.0000 </r>
       <r>    4.0451    1.0000 </r>
       <r>    4.0916    1.0000 </r>
       <r>    4.0970    1.0000 </r>
       <r>    4.0973    1.0000 </r>
       <r>    4.3363    1.0000 </r>
       <r>    4.3386    1.0000 </r>
       <r>    4.3414    1.0000 </r>
       <r>    4.4063    1.0000 </r>
       <r>    4.4114    1.0000 </r>
       <r>    4.4165    1.0000 </r>
       <r>    4.5579    1.0000 </r>
       <r>    4.5650    1.0000 </r>
       <r>    4.8639    1.0000 </r>
       <r>    4.8665    1.0000 </r>
       <r>    4.8704    1.0000 </r>
       <r>    5.3430    1.0000 </r>
       <r>    5.3508    1.0000 </r>
       <r>    6.5590    0.0000 </r>
       <r>    6.5596    0.0000 </r>
       <r>    6.5658    0.0000 </r>
       <r>    7.0010    0.0000 </r>
       <r>    7.0035    0.0000 </r>
       <r>    7.0062    0.0000 </r>
       <r>    7.2320    0.0000 </r>
       <r>    7.4859    0.0000 </r>
       <r>    7.4890    0.0000 </r>
       <r>    7.4917    0.0000 </r>
       <r>    7.6159    0.0000 </r>
       <r>    7.6227    0.0000 </r>
       <r>    7.6249    0.0000 </r>
       <r>    7.7761    0.0000 </r>
       <r>    7.7798    0.0000 </r>
       <r>    7.7818    0.0000 </r>
       <r>    7.7969    0.0000 </r>
       <r>    7.8013    0.0000 </r>
       <r>    7.8029    0.0000 </r>
       <r>    8.0264    0.0000 </r>
       <r>    8.0300    0.0000 </r>
       <r>    8.0303    0.0000 </r>
       <r>    8.0343    0.0000 </r>
       <r>    8.0358    0.0000 </r>
       <r>    8.0383    0.0000 </r>
       <r>    8.0791    0.0000 </r>
       <r>    8.2925    0.0000 </r>
       <r>    8.2947    0.0000 </r>
       <r>    8.2969    0.0000 </r>
       <r>    8.4963    0.0000 </r>
       <r>    8.4992    0.0000 </r>
       <r>    8.5042    0.0000 </r>
       <r>    8.5074    0.0000 </r>
       <r>    8.5086    0.0000 </r>
       <r>    8.5138    0.0000 </r>
       <r>    8.5419    0.0000 </r>
      </set>
     </set>
    </set>
   </array>
  </eigenvalues>
  <separator name="orbital magnetization" >
   <v name="MAGDIPOLOUT">      0.00000000      0.00000000      0.00000000</v>
  </separator>
  <dos>
   <i name="efermi">      5.60048357 </i>
   <total>
    <array>
     <dimension dim="1">gridpoints</dimension>
     <dimension dim="2">spin</dimension>
     <field>energy</field>
     <field>total</field>
     <field>integrated</field>
     <set>
      <set comment="spin 1">
       <r>    -6.7204     0.0000     0.0000 </r>
       <r>    -6.6670     0.0000     0.0000 </r>
       <r>    -6.6137     0.0000     0.0000 </r>
       <r>    -6.5604     0.0000     0.0000 </r>
       <r>    -6.5071     0.0000     0.0000 </r>
       <r>    -6.4538     0.0000     0.0000 </r>
       <r>    -6.4004     0.0000     0.0000 </r>
       <r>    -6.3471     0.0000     0.0000 </r>
       <r>    -6.2938     0.0000     0.0000 </r>
       <r>    -6.2405     0.0000     0.0000 </r>
       <r>    -6.1871     0.0000     0.0000 </r>
       <r>    -6.1338     0.0013     0.0001 </r>
       <r>    -6.0805     0.2520     0.0135 </r>
       <r>    -6.0272     6.0498     0.3361 </r>
       <r>    -5.9739    20.2359     1.4151 </r>
       <r>    -5.9205    10.2197     1.9601 </r>
       <r>    -5.8672     0.7420     1.9996 </r>
       <r>    -5.8139     0.0069     2.0000 </r>
       <r>    -5.7606     0.0000     2.0000 </r>
       <r>    -5.7072     0.0000     2.0000 </r>
       <r>    -5.6539     0.0000     2.0000 </r>
       <r>    -5.6006     0.0071     2.0004 </r>
       <r>    -5.5473     1.1132     2.0597 </r>
       <r>    -5.4940    21.9547     3.2304 </r>
       <r>    -5.4406    61.5371     6.5117 </r>
       <r>    -5.3873    26.2850     7.9133 </r>
       <r>    -5.3340     1.6127     7.9993 </r>
       <r>    -5.2807     0.0126     8.0000 </r>
       <r>    -5.2273     0.0000     8.0000 </r>
       <r>    -5.1740     0.0000     8.0000 </r>
       <r>    -5.1207     0.0007     8.0000 </r>
       <r>    -5.0674     0.2275     8.0122 </r>
       <r>    -5.0140     9.3881     8.5128 </r>
       <r>    -4.9607    52.6991    11.3228 </r>
       <r>    -4.9074    44.5223    13.6969 </r>
       <r>    -4.8541     5.5913    13.9950 </r>
       <r>    -4.8008     0.0935    14.0000 </r>
       <r>    -4.7474     0.0002    14.0000 </r>
       <r>    -4.6941     0.0001    14.0000 </r>
       <r>    -4.6408     0.0399    14.0021 </r>
       <r>    -4.5875     2.1737    14.1180 </r>
       <r>    -4.5341    15.9420    14.9681 </r>
       <r>    -4.4808    26.3102    16.3710 </r>
       <r>    -4.4275    55.4967    19.3303 </r>
       <r>    -4.3742    44.4274    21.6993 </r>
       <r>    -4.3209     5.5475    21.9951 </r>
       <r>    -4.2675     0.0924    22.0000 </r>
       <r>    -4.2142     0.0002    22.0000 </r>
       <r>    -4.1609     0.0058    22.0003 </r>
       <r>    -4.1076     1.1939    22.0640 </r>
       <r>    -4.0542    31.3963    23.7381 </r>
       <r>    -4.0009   117.8688    30.0232 </r>
       <r>    -3.9476    68.5941    33.6808 </r>
       <r>    -3.8943     8.6934    34.1443 </r>
       <r>    -3.8410    33.2701    35.9184 </r>
       <r>    -3.7876    59.4615    39.0890 </r>
       <r>    -3.7343    16.4345    39.9654 </r>
       <r>    -3.6810     0.6462    39.9998 </r>
       <r>    -3.6277     0.0032    40.0000 </r>
       <r>    -3.5743     0.0000    40.0000 </r>
       <r>    -3.5210     0.0000    40.0000 </r>
       <r>    -3.4677     0.0049    40.0003 </r>
       <r>    -3.4144     0.8641    40.0463 </r>
       <r>    -3.3610    19.2255    41.0715 </r>
       <r>    -3.3077    60.8195    44.3145 </r>
       <r>    -3.2544    29.5030    45.8877 </r>
       <r>    -3.2011     2.0864    45.9990 </r>
       <r>    -3.1478     0.0192    46.0000 </r>
       <r>    -3.0944     0.0084    46.0004 </r>
       <r>    -3.0411     1.2091    46.0649 </r>
       <r>    -2.9878    22.6076    47.2704 </r>
       <r>    -2.9345    61.3289    50.5406 </r>
       <r>    -2.8811    27.0440    51.9827 </r>
       <r>    -2.8278    33.9903    53.7951 </r>
       <r>    -2.7745   118.5248    60.1152 </r>
       <r>    -2.7212    67.1285    63.6947 </r>
       <r>    -2.6679     5.6627    63.9966 </r>
       <r>    -2.6145     0.0636    64.0000 </r>
       <r>    -2.5612     0.0001    64.0000 </r>
       <r>    -2.5079     0.0000    64.0000 </r>
       <r>    -2.4546     0.0000    64.0000 </r>
       <r>    -2.4012     0.0000    64.0000 </r>
       <r>    -2.3479     0.0000    64.0000 </r>
       <r>    -2.2946     0.0000    64.0000 </r>
       <r>    -2.2413     0.0000    64.0000 </r>
       <r>    -2.1880     0.0000    64.0000 </r>
       <r>    -2.1346     0.0000    64.0000 </r>
       <r>    -2.0813     0.0000    64.0000 </r>
       <r>    -2.0280     0.0000    64.0000 </r>
       <r>    -1.9747     0.0000    64.0000 </r>
       <r>    -1.9213     0.0000    64.0000 </r>
       <r>    -1.8680     0.0000    64.0000 </r>
       <r>    -1.8147     0.0000    64.0000 </r>
       <r>    -1.7614     0.0000    64.0000 </r>
       <r>    -1.7080     0.0000    64.0000 </r>
       <r>    -1.6547     0.0000    64.0000 </r>
       <r>    -1.6014     0.0000    64.0000 </r>
       <r>    -1.5481     0.0000    64.0000 </r>
       <r>    -1.4948     0.0000    64.0000 </r>
       <r>    -1.4414     0.0000    64.0000 </r>
       <r>    -1.3881     0.0108    64.0006 </r>
       <r>    -1.3348     1.8046    64.0968 </r>
       <r>    -1.2815    38.8774    66.1698 </r>
       <r>    -1.2281   122.9025    72.7233 </r>
       <r>    -1.1748    85.3834    77.2762 </r>
       <r>    -1.1215    66.1845    80.8053 </r>
       <r>    -1.0682    39.4487    82.9088 </r>
       <r>    -1.0149    64.1247    86.3281 </r>
       <r>    -0.9615    66.9680    89.8990 </r>
       <r>    -0.9082    60.9900    93.1512 </r>
       <r>    -0.8549    15.3358    93.9689 </r>
       <r>    -0.8016     0.5799    93.9998 </r>
       <r>    -0.7482     0.0028    94.0000 </r>
       <r>    -0.6949     0.0000    94.0000 </r>
       <r>    -0.6416     0.0000    94.0000 </r>
       <r>    -0.5883     0.0000    94.0000 </r>
       <r>    -0.5349     0.0000    94.0000 </r>
       <r>    -0.4816     0.0000    94.0000 </r>
       <r>    -0.4283     0.0000    94.0000 </r>
       <r>    -0.3750     0.0045    94.0002 </r>
       <r>    -0.3217     0.5597    94.0301 </r>
       <r>    -0.2683     9.1781    94.5195 </r>
       <r>    -0.2150    34.2909    96.3480 </r>
       <r>    -0.1617   101.6696   101.7693 </r>
       <r>    -0.1084   100.1213   107.1080 </r>
       <r>    -0.0550    16.3507   107.9799 </r>
       <r>    -0.0017     0.3768   107.9999 </r>
       <r>     0.0516     0.0011   108.0000 </r>
       <r>     0.1049     0.0000   108.0000 </r>
       <r>     0.1582     0.0000   108.0000 </r>
       <r>     0.2116     0.0000   108.0000 </r>
       <r>     0.2649     0.0000   108.0000 </r>
       <r>     0.3182     0.0000   108.0000 </r>
       <r>     0.3715     0.0000   108.0000 </r>
       <r>     0.4249     0.0000   108.0000 </r>
       <r>     0.4782     0.0000   108.0000 </r>
       <r>     0.5315     0.0000   108.0000 </r>
       <r>     0.5848     0.0151   108.0008 </r>
       <r>     0.6381     1.7942   108.0965 </r>
       <r>     0.6915    27.5059   109.5632 </r>
       <r>     0.7448    61.2454   112.8289 </r>
       <r>     0.7981    20.9330   113.9451 </r>
       <r>     0.8514     1.0227   113.9997 </r>
       <r>     0.9048     0.0098   114.0002 </r>
       <r>     0.9581     0.6832   114.0366 </r>
       <r>     1.0114    17.0327   114.9448 </r>
       <r>     1.0647    59.9388   118.1409 </r>
       <r>     1.1181    32.2894   119.8627 </r>
       <r>     1.1714     2.5488   119.9986 </r>
       <r>     1.2247     0.0263   120.0000 </r>
       <r>     1.2780     0.0000   120.0000 </r>
       <r>     1.3313     0.0000   120.0000 </r>
       <r>     1.3847     0.0000   120.0000 </r>
       <r>     1.4380     0.0000   120.0000 </r>
       <r>     1.4913     0.0003   120.0000 </r>
       <r>     1.5446     0.1738   120.0093 </r>
       <r>     1.5980    10.7118   120.5805 </r>
       <r>     1.6513    91.1208   125.4393 </r>
       <r>     1.7046   144.8761   133.1644 </r>
       <r>     1.7579    76.8326   137.2614 </r>
       <r>     1.8112    13.4439   137.9782 </r>
       <r>     1.8646     0.4069   137.9999 </r>
       <r>     1.9179     0.0016   138.0000 </r>
       <r>     1.9712     0.0000   138.0000 </r>
       <r>     2.0245     0.0000   138.0000 </r>
       <r>     2.0779     0.0000   138.0000 </r>
       <r>     2.1312     0.0067   138.0004 </r>
       <r>     2.1845     1.0626   138.0570 </r>
       <r>     2.2378    21.4248   139.1994 </r>
       <r>     2.2911    64.2049   142.6230 </r>
       <r>     2.3445    76.9794   146.7278 </r>
       <r>     2.3978   148.3713   154.6393 </r>
       <r>     2.4511   109.3050   160.4677 </r>
       <r>     2.5044    27.2848   161.9226 </r>
       <r>     2.5578     1.4405   161.9994 </r>
       <r>     2.6111     0.0656   162.0029 </r>
       <r>     2.6644     5.2471   162.2827 </r>
       <r>     2.7177    65.4020   165.7701 </r>
       <r>     2.7711   119.5601   172.1454 </r>
       <r>     2.8244    33.4541   173.9292 </r>
       <r>     2.8777     1.3621   174.0019 </r>
       <r>     2.9310     4.1641   174.2239 </r>
       <r>     2.9843    56.8693   177.2563 </r>
       <r>     3.0377   120.2852   183.6703 </r>
       <r>     3.0910    41.4910   185.8827 </r>
       <r>     3.1443     2.1848   185.9992 </r>
       <r>     3.1976     0.0158   186.0000 </r>
       <r>     3.2510     0.1108   186.0059 </r>
       <r>     3.3043     7.1945   186.3896 </r>
       <r>     3.3576    69.2221   190.0807 </r>
       <r>     3.4109   119.8951   196.4738 </r>
       <r>     3.4642    80.2025   200.7504 </r>
       <r>     3.5176    52.4478   203.5470 </r>
       <r>     3.5709     8.3111   203.9902 </r>
       <r>     3.6242     0.3041   204.0064 </r>
       <r>     3.6775     8.5037   204.4599 </r>
       <r>     3.7309    87.1329   209.1060 </r>
       <r>     3.7842   163.9706   217.8493 </r>
       <r>     3.8375    70.8636   221.6280 </r>
       <r>     3.8908     6.8661   221.9941 </r>
       <r>     3.9441     0.2368   222.0067 </r>
       <r>     3.9975     4.3724   222.2399 </r>
       <r>     4.0508    28.8956   223.7807 </r>
       <r>     4.1041    66.7259   227.3387 </r>
       <r>     4.1574    44.5922   229.7164 </r>
       <r>     4.2108     5.2473   229.9962 </r>
       <r>     4.2641     1.7770   230.0910 </r>
       <r>     4.3174    27.5233   231.5586 </r>
       <r>     4.3707    78.9683   235.7694 </r>
       <r>     4.4241    81.3747   240.1085 </r>
       <r>     4.4774    33.5188   241.8958 </r>
       <r>     4.5307    15.6826   242.7320 </r>
       <r>     4.5840    40.5464   244.8941 </r>
       <r>     4.6373    19.3647   245.9267 </r>
       <r>     4.6907     1.3628   245.9993 </r>
       <r>     4.7440     0.0350   246.0012 </r>
       <r>     4.7973     2.2856   246.1231 </r>
       <r>     4.8506    30.5889   247.7542 </r>
       <r>     4.9040    60.3809   250.9738 </r>
       <r>     4.9573    18.4337   251.9567 </r>
       <r>     5.0106     0.8066   251.9998 </r>
       <r>     5.0639     0.0045   252.0000 </r>
       <r>     5.1172     0.0000   252.0000 </r>
       <r>     5.1706     0.0000   252.0000 </r>
       <r>     5.2239     0.0163   252.0009 </r>
       <r>     5.2772     1.5872   252.0855 </r>
       <r>     5.3305    20.6272   253.1854 </r>
       <r>     5.3839    40.0666   255.3219 </r>
       <r>     5.4372    12.1780   255.9712 </r>
       <r>     5.4905     0.5367   255.9998 </r>
       <r>     5.5438     0.0031   256.0000 </r>
       <r>     5.5972     0.0000   256.0000 </r>
       <r>     5.6505     0.0000   256.0000 </r>
       <r>     5.7038     0.0000   256.0000 </r>
       <r>     5.7571     0.0000   256.0000 </r>
       <r>     5.8104     0.0000   256.0000 </r>
       <r>     5.8638     0.0000   256.0000 </r>
       <r>     5.9171     0.0000   256.0000 </r>
       <r>     5.9704     0.0000   256.0000 </r>
       <r>     6.0237     0.0000   256.0000 </r>
       <r>     6.0771     0.0000   256.0000 </r>
       <r>     6.1304     0.0000   256.0000 </r>
       <r>     6.1837     0.0000   256.0000 </r>
       <r>     6.2370     0.0000   256.0000 </r>
       <r>     6.2903     0.0000   256.0000 </r>
       <r>     6.3437     0.0000   256.0000 </r>
       <r>     6.3970     0.0002   256.0000 </r>
       <r>     6.4503     0.0825   256.0044 </r>
       <r>     6.5036     5.1396   256.2785 </r>
       <r>     6.5570    42.9703   258.5697 </r>
       <r>     6.6103    53.8045   261.4387 </r>
       <r>     6.6636    10.2549   261.9856 </r>
       <r>     6.7169     0.2698   262.0000 </r>
       <r>     6.7702     0.0009   262.0000 </r>
       <r>     6.8236     0.0000   262.0000 </r>
       <r>     6.8769     0.0183   262.0010 </r>
       <r>     6.9302     2.0323   262.1093 </r>
       <r>     6.9835    29.2126   263.6670 </r>
       <r>     7.0369    60.9453   266.9168 </r>
       <r>     7.0902    19.4321   267.9530 </r>
       <r>     7.1435     1.0791   268.0105 </r>
       <r>     7.1968     5.3748   268.2971 </r>
       <r>     7.2502    19.8901   269.3577 </r>
       <r>     7.3035    11.1331   269.9513 </r>
       <r>     7.3568     0.9121   270.0000 </r>
       <r>     7.4101     1.3091   270.0698 </r>
       <r>     7.4634    23.6041   271.3284 </r>
       <r>     7.5168    61.7870   274.6231 </r>
       <r>     7.5701    33.6747   276.4187 </r>
       <r>     7.6234    53.2550   279.2584 </r>
       <r>     7.6767    45.5469   281.6871 </r>
       <r>     7.7301    17.3105   282.6101 </r>
       <r>     7.7834    83.9587   287.0870 </r>
       <r>     7.8367   105.6847   292.7224 </r>
       <r>     7.8900    23.1680   293.9578 </r>
       <r>     7.9433     2.4201   294.0868 </r>
       <r>     7.9967    37.2502   296.0731 </r>
       <r>     8.0500   127.4135   302.8671 </r>
       <r>     8.1033    81.5080   307.2133 </r>
       <r>     8.1566    14.0710   307.9636 </r>
       <r>     8.2100     1.5996   308.0489 </r>
       <r>     8.2633    19.9540   309.1129 </r>
       <r>     8.3166    61.1778   312.3751 </r>
       <r>     8.3699    28.5576   313.8979 </r>
       <r>     8.4232     4.5394   314.1399 </r>
       <r>     8.4766    46.5914   316.6243 </r>
       <r>     8.5299   132.5866   323.6942 </r>
       <r>     8.5832    72.0504   327.5361 </r>
       <r>     8.6365     8.4940   327.9890 </r>
       <r>     8.6899     0.2056   328.0000 </r>
       <r>     8.7432     0.0008   328.0000 </r>
       <r>     8.7965     0.0000   328.0000 </r>
       <r>     8.8498     0.0000   328.0000 </r>
       <r>     8.9032     0.0000   328.0000 </r>
       <r>     8.9565     0.0000   328.0000 </r>
       <r>     9.0098     0.0000   328.0000 </r>
       <r>     9.0631     0.0000   328.0000 </r>
       <r>     9.1164     0.0000   328.0000 </r>
       <r>     9.1698     0.0000   328.0000 </r>
       <r>     9.2231     0.0000   328.0000 </r>
       <r>     9.2764     0.0000   328.0000 </r>
      </set>
     </set>
    </array>
   </total>
  </dos>
 </calculation>
 <structure name="finalpos" >
  <crystal>
   <varray name="basis" >
    <v>      10.93252578       0.00000000       0.00000000 </v>
    <v>       0.00000000      10.93252578       0.00000000 </v>
    <v>       0.00000000       0.00000000      10.93252578 </v>
   </varray>
   <i name="volume">   1306.65679237 </i>
   <varray name="rec_basis" >
    <v>       0.09147017       0.00000000       0.00000000 </v>
    <v>       0.00000000       0.09147017       0.00000000 </v>
    <v>       0.00000000       0.00000000       0.09147017 </v>
   </varray>
  </crystal>
  <varray name="positions" >
   <v>       0.44024411       0.43750000       0.43750000 </v>
   <v>       0.93750000       0.43750000       0.43750000 </v>
   <v>       0.43944038       0.93944038       0.43750000 </v>
   <v>       0.93750000       0.93750000       0.43750000 </v>
   <v>       0.43750000       0.43750000       0.93750000 </v>
   <v>       0.93750000       0.43750000       0.93750000 </v>
   <v>       0.43750000       0.93750000       0.93750000 </v>
   <v>       0.93750000       0.93750000       0.93750000 </v>
   <v>       0.43750000       0.18750000       0.18750000 </v>
   <v>       0.93750000       0.18750000       0.18750000 </v>
   <v>       0.43750000       0.68750000       0.18750000 </v>
   <v>       0.93750000       0.68750000       0.18750000 </v>
   <v>       0.43750000       0.18750000       0.68750000 </v>
   <v>       0.93750000       0.18750000       0.68750000 </v>
   <v>       0.43750000       0.68750000       0.68750000 </v>
   <v>       0.93750000       0.68750000       0.68750000 </v>
   <v>       0.18750000       0.43750000       0.18750000 </v>
   <v>       0.68750000       0.43750000       0.18750000 </v>
   <v>       0.18750000       0.93750000       0.18750000 </v>
   <v>       0.68750000       0.93750000       0.18750000 </v>
   <v>       0.18750000       0.43750000       0.68750000 </v>
   <v>       0.68750000       0.43750000       0.68750000 </v>
   <v>       0.18750000       0.93750000       0.68750000 </v>
   <v>       0.68750000       0.93750000       0.68750000 </v>
   <v>       0.18750000       0.18750000       0.43750000 </v>
   <v>       0.68750000       0.18750000       0.43750000 </v>
   <v>       0.18750000       0.68750000       0.43750000 </v>
   <v>       0.68750000       0.68750000       0.43750000 </v>
   <v>       0.18750000       0.18750000       0.93750000 </v>
   <v>       0.68750000       0.18750000       0.93750000 </v>
   <v>       0.18750000       0.68750000       0.93750000 </v>
   <v>       0.68750000       0.68750000       0.93750000 </v>
   <v>       0.06250000       0.06250000       0.06250000 </v>
   <v>       0.56250000       0.06250000       0.06250000 </v>
   <v>       0.06250000       0.56250000       0.06250000 </v>
   <v>       0.56250000       0.56250000       0.06250000 </v>
   <v>       0.06250000       0.06250000       0.56250000 </v>
   <v>       0.56250000       0.06250000       0.56250000 </v>
   <v>       0.06250000       0.56250000       0.56250000 </v>
   <v>       0.56250000       0.56250000       0.56250000 </v>
   <v>       0.06250000       0.31250000       0.31250000 </v>
   <v>       0.56250000       0.31250000       0.31250000 </v>
   <v>       0.06250000       0.81250000       0.31250000 </v>
   <v>       0.56250000       0.81250000       0.31250000 </v>
   <v>       0.06250000       0.31250000       0.81250000 </v>
   <v>       0.56250000       0.31250000       0.81250000 </v>
   <v>       0.06250000       0.81250000       0.81250000 </v>
   <v>       0.56250000       0.81250000       0.81250000 </v>
   <v>       0.31250000       0.06250000       0.31250000 </v>
   <v>       0.81250000       0.06250000       0.31250000 </v>
   <v>       0.31250000       0.56250000       0.31250000 </v>
   <v>       0.81250000       0.56250000       0.31250000 </v>
   <v>       0.31250000       0.06250000       0.81250000 </v>
   <v>       0.81250000       0.06250000       0.81250000 </v>
   <v>       0.31250000       0.56250000       0.81250000 </v>
   <v>       0.81250000       0.56250000       0.81250000 </v>
   <v>       0.31250000       0.31250000       0.06250000 </v>
   <v>       0.81250000       0.31250000       0.06250000 </v>
   <v>       0.31250000       0.81250000       0.06250000 </v>
   <v>       0.81250000       0.81250000       0.06250000 </v>
   <v>       0.31250000       0.31250000       0.56250000 </v>
   <v>       0.81250000       0.31250000       0.56250000 </v>
   <v>       0.31250000       0.81250000       0.56250000 </v>
   <v>       0.81250000       0.81250000       0.56250000 </v>
  </varray>
 </structure>
</modeling>
