
     Program PWSCF v.5.3.0 (svn rev. 11974) starts on  3Feb2016 at 13:36:42 

     This program is part of the open-source Quantum ESPRESSO suite
     for quantum simulation of materials; please cite
         "P. Giannozzi et al., J. Phys.:Condens. Matter 21 395502 (2009);
          URL http://www.quantum-espresso.org", 
     in publications or presentations arising from this work. More details at
     http://www.quantum-espresso.org/quote

     Parallel version (MPI), running on    16 processors
     R & G space division:  proc/nbgrp/npool/nimage =      16
     Reading input from Si.in

     Current dimensions of program PWSCF are:
     Max number of different atomic species (ntypx) = 10
     Max number of k-points (npk) =  40000
     Max angular momentum in pseudopotentials (lmaxx) =  3
               file Si.pbe-n-kjpaw_psl.0.1.UPF: wavefunction(s)  3S renormalized

     Subspace diagonalization in iterative solution of the eigenvalue problem:
     one sub-group per k-point group (pool) will be used
     scalapack distributed-memory algorithm (size of sub-group:  2*  2 procs)

 
     Parallelization info
     --------------------
     sticks:   dense  smooth     PW     G-vecs:    dense   smooth      PW
     Min         424     424    109                26332    26332    3467
     Max         425     425    110                26336    26336    3472
     Sum        6785    6785   1757               421349   421349   55515
 


     bravais-lattice index     =            0
     lattice parameter (alat)  =      20.6591  a.u.
     unit-cell volume          =    8817.2783 (a.u.)^3
     number of atoms/cell      =           64
     number of atomic types    =            1
     number of electrons       =       256.00
     number of Kohn-Sham states=          154
     kinetic-energy cutoff     =      50.0000  Ry
     charge density cutoff     =     200.0000  Ry
     convergence threshold     =      1.0E-09
     mixing beta               =       0.7000
     number of iterations used =            8  plain     mixing
     Exchange-correlation      =  SLA  PW   PBX  PBC ( 1  4  3  4 0 0)

     celldm(1)=  20.659106  celldm(2)=   0.000000  celldm(3)=   0.000000
     celldm(4)=   0.000000  celldm(5)=   0.000000  celldm(6)=   0.000000

     crystal axes: (cart. coord. in units of alat)
               a(1) = (   1.000000   0.000000   0.000000 )  
               a(2) = (   0.000000   1.000000   0.000000 )  
               a(3) = (   0.000000   0.000000   1.000000 )  

     reciprocal axes: (cart. coord. in units 2 pi/alat)
               b(1) = (  1.000000  0.000000  0.000000 )  
               b(2) = (  0.000000  1.000000  0.000000 )  
               b(3) = (  0.000000  0.000000  1.000000 )  


     PseudoPot. # 1 for Si read from file:
     /home/togo/espresso/pseudo/Si.pbe-n-kjpaw_psl.0.1.UPF
     MD5 check sum: b9d333a40e496bef61db012f150758bf
     Pseudo is Projector augmented-wave + core cor, Zval =  4.0
     Generated using "atomic" code by A. Dal Corso  v.5.0.2 svn rev. 9415
     Shape of augmentation charge: PSQ
     Using radial grid of 1141 points,  4 beta functions with: 
                l(1) =   0
                l(2) =   0
                l(3) =   1
                l(4) =   1
     Q(r) pseudized with 0 coefficients 


     atomic species   valence    mass     pseudopotential
        Si             4.00    28.08550     Si( 1.00)

     No symmetry found



   Cartesian axes

     site n.     atom                  positions (alat units)
         1           Si  tau(   1) = (   0.4404043   0.4375000   0.4375000  )
         2           Si  tau(   2) = (   0.9375000   0.4375000   0.4375000  )
         3           Si  tau(   3) = (   0.4375000   0.9375000   0.4375000  )
         4           Si  tau(   4) = (   0.9375000   0.9375000   0.4375000  )
         5           Si  tau(   5) = (   0.4375000   0.4375000   0.9375000  )
         6           Si  tau(   6) = (   0.9375000   0.4375000   0.9375000  )
         7           Si  tau(   7) = (   0.4375000   0.9375000   0.9375000  )
         8           Si  tau(   8) = (   0.9375000   0.9375000   0.9375000  )
         9           Si  tau(   9) = (   0.4375000   0.1875000   0.1875000  )
        10           Si  tau(  10) = (   0.9375000   0.1875000   0.1875000  )
        11           Si  tau(  11) = (   0.4375000   0.6875000   0.1875000  )
        12           Si  tau(  12) = (   0.9375000   0.6875000   0.1875000  )
        13           Si  tau(  13) = (   0.4375000   0.1875000   0.6875000  )
        14           Si  tau(  14) = (   0.9375000   0.1875000   0.6875000  )
        15           Si  tau(  15) = (   0.4375000   0.6875000   0.6875000  )
        16           Si  tau(  16) = (   0.9375000   0.6875000   0.6875000  )
        17           Si  tau(  17) = (   0.1845957   0.4375000   0.1875000  )
        18           Si  tau(  18) = (   0.6875000   0.4375000   0.1875000  )
        19           Si  tau(  19) = (   0.1875000   0.9375000   0.1875000  )
        20           Si  tau(  20) = (   0.6875000   0.9375000   0.1875000  )
        21           Si  tau(  21) = (   0.1875000   0.4375000   0.6875000  )
        22           Si  tau(  22) = (   0.6875000   0.4375000   0.6875000  )
        23           Si  tau(  23) = (   0.1875000   0.9375000   0.6875000  )
        24           Si  tau(  24) = (   0.6875000   0.9375000   0.6875000  )
        25           Si  tau(  25) = (   0.1875000   0.1875000   0.4375000  )
        26           Si  tau(  26) = (   0.6875000   0.1875000   0.4375000  )
        27           Si  tau(  27) = (   0.1875000   0.6875000   0.4375000  )
        28           Si  tau(  28) = (   0.6875000   0.6875000   0.4375000  )
        29           Si  tau(  29) = (   0.1875000   0.1875000   0.9375000  )
        30           Si  tau(  30) = (   0.6875000   0.1875000   0.9375000  )
        31           Si  tau(  31) = (   0.1875000   0.6875000   0.9375000  )
        32           Si  tau(  32) = (   0.6875000   0.6875000   0.9375000  )
        33           Si  tau(  33) = (   0.0625000   0.0625000   0.0625000  )
        34           Si  tau(  34) = (   0.5625000   0.0625000   0.0625000  )
        35           Si  tau(  35) = (   0.0625000   0.5625000   0.0625000  )
        36           Si  tau(  36) = (   0.5625000   0.5625000   0.0625000  )
        37           Si  tau(  37) = (   0.0625000   0.0625000   0.5625000  )
        38           Si  tau(  38) = (   0.5625000   0.0625000   0.5625000  )
        39           Si  tau(  39) = (   0.0625000   0.5625000   0.5625000  )
        40           Si  tau(  40) = (   0.5625000   0.5625000   0.5625000  )
        41           Si  tau(  41) = (   0.0625000   0.3125000   0.3125000  )
        42           Si  tau(  42) = (   0.5625000   0.3125000   0.3125000  )
        43           Si  tau(  43) = (   0.0625000   0.8125000   0.3125000  )
        44           Si  tau(  44) = (   0.5625000   0.8125000   0.3125000  )
        45           Si  tau(  45) = (   0.0625000   0.3125000   0.8125000  )
        46           Si  tau(  46) = (   0.5625000   0.3125000   0.8125000  )
        47           Si  tau(  47) = (   0.0625000   0.8125000   0.8125000  )
        48           Si  tau(  48) = (   0.5625000   0.8125000   0.8125000  )
        49           Si  tau(  49) = (   0.3125000   0.0625000   0.3125000  )
        50           Si  tau(  50) = (   0.8125000   0.0625000   0.3125000  )
        51           Si  tau(  51) = (   0.3125000   0.5625000   0.3125000  )
        52           Si  tau(  52) = (   0.8125000   0.5625000   0.3125000  )
        53           Si  tau(  53) = (   0.3125000   0.0625000   0.8125000  )
        54           Si  tau(  54) = (   0.8125000   0.0625000   0.8125000  )
        55           Si  tau(  55) = (   0.3125000   0.5625000   0.8125000  )
        56           Si  tau(  56) = (   0.8125000   0.5625000   0.8125000  )
        57           Si  tau(  57) = (   0.3125000   0.3125000   0.0625000  )
        58           Si  tau(  58) = (   0.8125000   0.3125000   0.0625000  )
        59           Si  tau(  59) = (   0.3125000   0.8125000   0.0625000  )
        60           Si  tau(  60) = (   0.8125000   0.8125000   0.0625000  )
        61           Si  tau(  61) = (   0.3125000   0.3125000   0.5625000  )
        62           Si  tau(  62) = (   0.8125000   0.3125000   0.5625000  )
        63           Si  tau(  63) = (   0.3125000   0.8125000   0.5625000  )
        64           Si  tau(  64) = (   0.8125000   0.8125000   0.5625000  )

     number of k points=     4  gaussian smearing, width (Ry)=  0.0100
                       cart. coord. in units 2pi/alat
        k(    1) = (   0.2500000   0.2500000   0.2500000), wk =   0.5000000
        k(    2) = (  -0.2500000  -0.2500000   0.2500000), wk =   0.5000000
        k(    3) = (  -0.2500000   0.2500000  -0.2500000), wk =   0.5000000
        k(    4) = (   0.2500000  -0.2500000  -0.2500000), wk =   0.5000000

     Dense  grid:   421349 G-vectors     FFT dimensions: (  96,  96,  96)

     Largest allocated arrays     est. size (Mb)     dimensions
        Kohn-Sham Wavefunctions         7.73 Mb     (    3289,  154)
        NL pseudopotentials            25.70 Mb     (    3289,  512)
        Each V/rho on FFT grid          0.84 Mb     (   55296)
        Each G-vector array             0.20 Mb     (   26336)
        G-vector shells                 0.01 Mb     (    1719)
     Largest temporary arrays     est. size (Mb)     dimensions
        Auxiliary wavefunctions        30.91 Mb     (    3289,  616)
        Each subspace H/S matrix        1.45 Mb     (     308,  308)
        Each <psi_i|beta_j> matrix      1.20 Mb     (     512,  154)
        Arrays for rho mixing           6.75 Mb     (   55296,    8)

     Check: negative/imaginary core charge=   -0.000001    0.000000

     Initial potential from superposition of free atoms

     starting charge  255.96421, renormalised to  256.00000
     Starting wfc are  256 randomized atomic wfcs
     Checking if some PAW data can be deallocated... 

     total cpu time spent up to now is        9.1 secs

     per-process dynamical memory:   114.8 Mb

     Self-consistent Calculation

     iteration #  1     ecut=    50.00 Ry     beta=0.70
     Davidson diagonalization with overlap
     ethr =  1.00E-02,  avg # of iterations =  3.0

     Threshold (ethr) on eigenvalues was too large:
     Diagonalizing with lowered threshold

     Davidson diagonalization with overlap
     ethr =  7.00E-04,  avg # of iterations =  1.0

     total cpu time spent up to now is       44.3 secs

     total energy              =   -2990.45688707 Ry
     Harris-Foulkes estimate   =   -2990.87686019 Ry
     estimated scf accuracy    <       1.77351667 Ry

     iteration #  2     ecut=    50.00 Ry     beta=0.70
     Davidson diagonalization with overlap
     ethr =  6.93E-04,  avg # of iterations =  1.0

     total cpu time spent up to now is       60.1 secs

     total energy              =   -2990.52359203 Ry
     Harris-Foulkes estimate   =   -2990.52746768 Ry
     estimated scf accuracy    <       0.07629050 Ry

     iteration #  3     ecut=    50.00 Ry     beta=0.70
     Davidson diagonalization with overlap
     ethr =  2.98E-05,  avg # of iterations = 11.2

     total cpu time spent up to now is       90.6 secs

     total energy              =   -2990.53057520 Ry
     Harris-Foulkes estimate   =   -2990.53135547 Ry
     estimated scf accuracy    <       0.00195451 Ry

     iteration #  4     ecut=    50.00 Ry     beta=0.70
     Davidson diagonalization with overlap
     ethr =  7.63E-07,  avg # of iterations =  6.5

     total cpu time spent up to now is      126.0 secs

     total energy              =   -2990.53037481 Ry
     Harris-Foulkes estimate   =   -2990.53270427 Ry
     estimated scf accuracy    <       0.00738094 Ry

     iteration #  5     ecut=    50.00 Ry     beta=0.70
     Davidson diagonalization with overlap
     ethr =  7.63E-07,  avg # of iterations =  4.5

     total cpu time spent up to now is      149.8 secs

     total energy              =   -2990.53146981 Ry
     Harris-Foulkes estimate   =   -2990.53158578 Ry
     estimated scf accuracy    <       0.00032869 Ry

     iteration #  6     ecut=    50.00 Ry     beta=0.70
     Davidson diagonalization with overlap
     ethr =  1.28E-07,  avg # of iterations =  2.0

     total cpu time spent up to now is      166.2 secs

     total energy              =   -2990.53152847 Ry
     Harris-Foulkes estimate   =   -2990.53154622 Ry
     estimated scf accuracy    <       0.00005027 Ry

     iteration #  7     ecut=    50.00 Ry     beta=0.70
     Davidson diagonalization with overlap
     ethr =  1.96E-08,  avg # of iterations =  2.2

     total cpu time spent up to now is      183.6 secs

     total energy              =   -2990.53153773 Ry
     Harris-Foulkes estimate   =   -2990.53153944 Ry
     estimated scf accuracy    <       0.00000389 Ry

     iteration #  8     ecut=    50.00 Ry     beta=0.70
     Davidson diagonalization with overlap
     ethr =  1.52E-09,  avg # of iterations =  3.0

     total cpu time spent up to now is      208.0 secs

     total energy              =   -2990.53153885 Ry
     Harris-Foulkes estimate   =   -2990.53153904 Ry
     estimated scf accuracy    <       0.00000040 Ry

     iteration #  9     ecut=    50.00 Ry     beta=0.70
     Davidson diagonalization with overlap
     ethr =  1.57E-10,  avg # of iterations =  3.0

     total cpu time spent up to now is      226.8 secs

     total energy              =   -2990.53153886 Ry
     Harris-Foulkes estimate   =   -2990.53153895 Ry
     estimated scf accuracy    <       0.00000014 Ry

     iteration # 10     ecut=    50.00 Ry     beta=0.70
     Davidson diagonalization with overlap
     ethr =  5.30E-11,  avg # of iterations =  3.0

     total cpu time spent up to now is      244.6 secs

     total energy              =   -2990.53153884 Ry
     Harris-Foulkes estimate   =   -2990.53153889 Ry
     estimated scf accuracy    <       0.00000006 Ry

     iteration # 11     ecut=    50.00 Ry     beta=0.70
     Davidson diagonalization with overlap
     ethr =  2.43E-11,  avg # of iterations =  2.0

     total cpu time spent up to now is      260.6 secs

     total energy              =   -2990.53153886 Ry
     Harris-Foulkes estimate   =   -2990.53153885 Ry
     estimated scf accuracy    <          2.2E-09 Ry

     iteration # 12     ecut=    50.00 Ry     beta=0.70
     Davidson diagonalization with overlap
     ethr =  8.41E-13,  avg # of iterations =  3.0

     total cpu time spent up to now is      284.1 secs

     total energy              =   -2990.53153886 Ry
     Harris-Foulkes estimate   =   -2990.53153886 Ry
     estimated scf accuracy    <          1.4E-09 Ry

     iteration # 13     ecut=    50.00 Ry     beta=0.70
     Davidson diagonalization with overlap
     ethr =  5.55E-13,  avg # of iterations =  2.0

     total cpu time spent up to now is      301.7 secs

     End of self-consistent calculation

          k = 0.2500 0.2500 0.2500 ( 52563 PWs)   bands (ev):

    -5.6251  -5.0989  -5.0964  -5.0938  -4.5992  -4.5969  -4.5942  -4.1632
    -4.0659  -4.0633  -4.0608  -3.6553  -3.6492  -3.6487  -3.6464  -3.6447
    -3.6382  -3.4600  -3.4549  -3.4494  -2.9613  -2.9585  -2.9557  -2.5944
    -2.5891  -2.5843  -2.4283  -2.4237  -2.4225  -2.4201  -2.4184  -2.4116
    -0.8854  -0.8811  -0.8799  -0.8774  -0.8750  -0.8711  -0.7851  -0.7806
    -0.7756  -0.6657  -0.6621  -0.6585  -0.5815  -0.5762  -0.5706   0.1262
     0.2033   0.2071   0.2100   0.2112   0.2151   0.2180   1.0802   1.0854
     1.0903   1.4168   1.4184   1.4198   2.0257   2.0262   2.0287   2.0302
     2.0312   2.0328   2.0866   2.0880   2.0899   2.6377   2.6400   2.6424
     2.7381   2.7403   2.7420   2.7437   2.7470   2.7483   2.7940   2.7963
     2.7989   3.1022   3.1051   3.1070   3.1085   3.1106   3.1119   3.3694
     3.3716   3.3736   3.3853   3.3863   3.3877   3.7312   3.7347   3.7372
     3.7516   3.7568   3.7618   3.8375   3.8395   3.8417   4.1054   4.1118
     4.1136   4.1144   4.1167   4.1233   4.1514   4.1534   4.1564   4.4131
     4.4685   4.4709   4.4736   4.7123   4.7145   4.7169   4.7744   4.7787
     4.7836   4.9362   4.9364   5.2405   5.2434   5.2467   5.7239   5.7241
     6.9322   6.9363   6.9402   7.3728   7.3768   7.3806   7.5987   7.8586
     7.8619   7.8649   7.9870   7.9916   7.9963   8.1489   8.1515   8.1541
     8.1656   8.1692   8.1726   8.3957   8.3986   8.4013   8.4026   8.4068
     8.4086   8.4485

          k =-0.2500-0.2500 0.2500 ( 52563 PWs)   bands (ev):

    -5.6251  -5.1005  -5.0963  -5.0923  -4.6007  -4.5967  -4.5929  -4.1632
    -4.0675  -4.0633  -4.0594  -3.6552  -3.6498  -3.6488  -3.6468  -3.6440
    -3.6377  -3.4600  -3.4548  -3.4494  -2.9633  -2.9585  -2.9539  -2.5944
    -2.5891  -2.5843  -2.4284  -2.4238  -2.4223  -2.4205  -2.4180  -2.4114
    -0.8850  -0.8814  -0.8800  -0.8778  -0.8747  -0.8709  -0.7850  -0.7806
    -0.7756  -0.6657  -0.6623  -0.6585  -0.5833  -0.5762  -0.5686   0.1263
     0.2035   0.2068   0.2087   0.2117   0.2153   0.2186   1.0798   1.0854
     1.0909   1.4160   1.4183   1.4206   2.0246   2.0266   2.0282   2.0297
     2.0323   2.0328   2.0856   2.0883   2.0915   2.6377   2.6401   2.6424
     2.7376   2.7394   2.7418   2.7432   2.7468   2.7488   2.7937   2.7971
     2.7998   3.1029   3.1043   3.1063   3.1088   3.1101   3.1129   3.3696
     3.3716   3.3733   3.3841   3.3872   3.3882   3.7308   3.7347   3.7376
     3.7517   3.7568   3.7617   3.8367   3.8396   3.8422   4.1059   4.1111
     4.1137   4.1140   4.1175   4.1229   4.1505   4.1541   4.1570   4.4131
     4.4684   4.4710   4.4734   4.7112   4.7145   4.7178   4.7732   4.7787
     4.7850   4.9363   4.9363   5.2392   5.2436   5.2480   5.7239   5.7240
     6.9322   6.9363   6.9402   7.3719   7.3768   7.3815   7.5987   7.8580
     7.8619   7.8656   7.9870   7.9917   7.9964   8.1474   8.1513   8.1546
     8.1659   8.1694   8.1729   8.3967   8.3983   8.4003   8.4032   8.4066
     8.4088   8.4484

          k =-0.2500 0.2500-0.2500 ( 52563 PWs)   bands (ev):

    -5.6251  -5.0989  -5.0964  -5.0938  -4.5993  -4.5969  -4.5942  -4.1632
    -4.0659  -4.0633  -4.0608  -3.6553  -3.6492  -3.6487  -3.6464  -3.6447
    -3.6382  -3.4600  -3.4549  -3.4494  -2.9613  -2.9585  -2.9557  -2.5944
    -2.5891  -2.5843  -2.4283  -2.4237  -2.4225  -2.4201  -2.4184  -2.4116
    -0.8854  -0.8811  -0.8799  -0.8774  -0.8750  -0.8711  -0.7851  -0.7806
    -0.7756  -0.6657  -0.6621  -0.6585  -0.5815  -0.5762  -0.5706   0.1262
     0.2033   0.2071   0.2100   0.2112   0.2151   0.2180   1.0802   1.0854
     1.0904   1.4168   1.4184   1.4198   2.0257   2.0262   2.0287   2.0302
     2.0312   2.0328   2.0866   2.0880   2.0899   2.6377   2.6400   2.6424
     2.7382   2.7403   2.7420   2.7437   2.7470   2.7483   2.7940   2.7963
     2.7989   3.1022   3.1051   3.1070   3.1085   3.1106   3.1119   3.3694
     3.3716   3.3736   3.3853   3.3863   3.3877   3.7312   3.7347   3.7372
     3.7516   3.7568   3.7618   3.8375   3.8395   3.8417   4.1054   4.1118
     4.1136   4.1144   4.1167   4.1233   4.1514   4.1534   4.1564   4.4131
     4.4685   4.4709   4.4736   4.7123   4.7145   4.7169   4.7744   4.7787
     4.7836   4.9362   4.9364   5.2405   5.2434   5.2467   5.7239   5.7241
     6.9322   6.9363   6.9402   7.3728   7.3768   7.3806   7.5987   7.8586
     7.8619   7.8649   7.9870   7.9916   7.9963   8.1489   8.1515   8.1541
     8.1656   8.1692   8.1726   8.3957   8.3986   8.4013   8.4026   8.4068
     8.4086   8.4485

          k = 0.2500-0.2500-0.2500 ( 52563 PWs)   bands (ev):

    -5.6251  -5.1005  -5.0963  -5.0923  -4.6007  -4.5967  -4.5929  -4.1632
    -4.0675  -4.0633  -4.0594  -3.6552  -3.6498  -3.6488  -3.6468  -3.6440
    -3.6377  -3.4600  -3.4548  -3.4494  -2.9633  -2.9585  -2.9539  -2.5944
    -2.5891  -2.5843  -2.4284  -2.4238  -2.4223  -2.4205  -2.4180  -2.4114
    -0.8850  -0.8814  -0.8800  -0.8779  -0.8747  -0.8709  -0.7850  -0.7806
    -0.7756  -0.6657  -0.6623  -0.6585  -0.5833  -0.5762  -0.5686   0.1263
     0.2035   0.2068   0.2087   0.2117   0.2153   0.2186   1.0798   1.0854
     1.0909   1.4160   1.4183   1.4206   2.0246   2.0266   2.0282   2.0297
     2.0323   2.0328   2.0856   2.0883   2.0915   2.6377   2.6401   2.6424
     2.7376   2.7394   2.7418   2.7432   2.7468   2.7488   2.7937   2.7971
     2.7998   3.1029   3.1043   3.1063   3.1088   3.1101   3.1129   3.3696
     3.3716   3.3733   3.3841   3.3872   3.3882   3.7309   3.7347   3.7376
     3.7517   3.7568   3.7617   3.8367   3.8396   3.8422   4.1059   4.1111
     4.1137   4.1140   4.1175   4.1229   4.1505   4.1541   4.1570   4.4131
     4.4684   4.4710   4.4734   4.7112   4.7145   4.7178   4.7732   4.7787
     4.7850   4.9363   4.9363   5.2392   5.2436   5.2480   5.7239   5.7240
     6.9322   6.9363   6.9402   7.3719   7.3768   7.3815   7.5987   7.8580
     7.8619   7.8656   7.9870   7.9917   7.9964   8.1474   8.1513   8.1546
     8.1659   8.1694   8.1729   8.3967   8.3983   8.4003   8.4032   8.4066
     8.4088   8.4484

     the Fermi energy is     6.3259 ev

!    total energy              =   -2990.53153886 Ry
     Harris-Foulkes estimate   =   -2990.53153886 Ry
     estimated scf accuracy    <          3.2E-10 Ry

     total all-electron energy =    -37124.667092 Ry

     The total energy is the sum of the following terms:

     one-electron contribution =     178.60615495 Ry
     hartree contribution      =      35.70162796 Ry
     xc contribution           =    -391.44200072 Ry
     ewald contribution        =    -534.00601408 Ry
     one-center paw contrib.   =   -2279.39130697 Ry
     smearing contrib. (-TS)   =       0.00000000 Ry

     convergence has been achieved in  13 iterations

     Forces acting on atoms (Ry/au):

     atom    1 type  1   force =    -0.01611572   -0.00011268   -0.00021991
     atom    2 type  1   force =    -0.00021486   -0.00011322    0.00023225
     atom    3 type  1   force =     0.00001193   -0.00000975    0.00007766
     atom    4 type  1   force =    -0.00005011   -0.00000981   -0.00007611
     atom    5 type  1   force =    -0.00017733    0.00010985    0.00022788
     atom    6 type  1   force =    -0.00024495    0.00011425   -0.00023200
     atom    7 type  1   force =    -0.00051695    0.00000960   -0.00007766
     atom    8 type  1   force =    -0.00001905    0.00000921    0.00007601
     atom    9 type  1   force =    -0.00075959    0.00034212    0.00022386
     atom   10 type  1   force =    -0.00023787   -0.00022381    0.00012324
     atom   11 type  1   force =    -0.00075424   -0.00011599   -0.00021918
     atom   12 type  1   force =    -0.00023769    0.00024247   -0.00012335
     atom   13 type  1   force =    -0.00056658   -0.00018748    0.00011908
     atom   14 type  1   force =    -0.00004201    0.00006566    0.00001869
     atom   15 type  1   force =    -0.00057038   -0.00003656   -0.00012396
     atom   16 type  1   force =    -0.00004316   -0.00008457   -0.00001901
     atom   17 type  1   force =     0.01611498   -0.00011276    0.00022004
     atom   18 type  1   force =     0.00021580   -0.00011332   -0.00023281
     atom   19 type  1   force =    -0.00001271   -0.00000967   -0.00007668
     atom   20 type  1   force =     0.00005091   -0.00000979    0.00007615
     atom   21 type  1   force =     0.00017733    0.00010985   -0.00022820
     atom   22 type  1   force =     0.00024493    0.00011427    0.00023271
     atom   23 type  1   force =     0.00051717    0.00000944    0.00007674
     atom   24 type  1   force =     0.00001887    0.00000936   -0.00007609
     atom   25 type  1   force =     0.00075934    0.00034164   -0.00022390
     atom   26 type  1   force =     0.00023853   -0.00022399   -0.00012292
     atom   27 type  1   force =     0.00075351   -0.00011581    0.00021928
     atom   28 type  1   force =     0.00023792    0.00024306    0.00012369
     atom   29 type  1   force =     0.00056614   -0.00018692   -0.00011907
     atom   30 type  1   force =     0.00004185    0.00006584   -0.00001906
     atom   31 type  1   force =     0.00057037   -0.00003680    0.00012387
     atom   32 type  1   force =     0.00004363   -0.00008505    0.00001869
     atom   33 type  1   force =     0.00003859    0.00006972   -0.00001845
     atom   34 type  1   force =     0.00023033    0.00005274    0.00000095
     atom   35 type  1   force =    -0.00390170    0.00273225   -0.00268042
     atom   36 type  1   force =    -0.00004790    0.00008851    0.00000091
     atom   37 type  1   force =    -0.00023009    0.00005233   -0.00000163
     atom   38 type  1   force =    -0.00003884    0.00006927    0.00001916
     atom   39 type  1   force =     0.00004821    0.00008887   -0.00000150
     atom   40 type  1   force =     0.00390137    0.00273276    0.00268092
     atom   41 type  1   force =    -0.00394113   -0.00274304    0.00266785
     atom   42 type  1   force =     0.00394116   -0.00274315   -0.00266798
     atom   43 type  1   force =     0.00008609   -0.00006387    0.00002409
     atom   44 type  1   force =    -0.00008607   -0.00006406   -0.00002339
     atom   45 type  1   force =     0.00008707   -0.00007720    0.00001376
     atom   46 type  1   force =    -0.00008702   -0.00007714   -0.00001352
     atom   47 type  1   force =    -0.00027785   -0.00005875   -0.00000366
     atom   48 type  1   force =     0.00027785   -0.00005850    0.00000300
     atom   49 type  1   force =    -0.00000062   -0.00007426    0.00000048
     atom   50 type  1   force =     0.00000045   -0.00005399    0.00000015
     atom   51 type  1   force =    -0.00000041   -0.00496362    0.00000004
     atom   52 type  1   force =     0.00000062   -0.00007511   -0.00000029
     atom   53 type  1   force =     0.00000013   -0.00005533   -0.00000047
     atom   54 type  1   force =    -0.00000006   -0.00006271   -0.00000025
     atom   55 type  1   force =    -0.00000002   -0.00010295   -0.00000002
     atom   56 type  1   force =    -0.00000010   -0.00005642    0.00000027
     atom   57 type  1   force =    -0.00387036    0.00253398    0.00244489
     atom   58 type  1   force =     0.00004085    0.00006670    0.00001170
     atom   59 type  1   force =     0.00031086    0.00006438    0.00002370
     atom   60 type  1   force =    -0.00004958    0.00005755   -0.00000195
     atom   61 type  1   force =     0.00386978    0.00253371   -0.00244490
     atom   62 type  1   force =    -0.00004032    0.00006595   -0.00001162
     atom   63 type  1   force =    -0.00031133    0.00006496   -0.00002361
     atom   64 type  1   force =     0.00005002    0.00005777    0.00000185

     Total force =     0.026937     Total SCF correction =     0.000034

     Writing output data file pwscf.save
 
     init_run     :      8.72s CPU      8.84s WALL (       1 calls)
     electrons    :    281.66s CPU    292.86s WALL (       1 calls)
     forces       :      4.14s CPU      4.21s WALL (       1 calls)

     Called by init_run:
     wfcinit      :      8.15s CPU      8.22s WALL (       1 calls)
     potinit      :      0.24s CPU      0.24s WALL (       1 calls)

     Called by electrons:
     c_bands      :    253.28s CPU    261.40s WALL (      14 calls)
     sum_band     :     24.18s CPU     27.00s WALL (      14 calls)
     v_of_rho     :      0.69s CPU      0.69s WALL (      14 calls)
     newd         :      1.05s CPU      1.08s WALL (      14 calls)
     PAW_pot      :      2.30s CPU      2.31s WALL (      14 calls)
     mix_rho      :      0.33s CPU      0.33s WALL (      14 calls)

     Called by c_bands:
     init_us_2    :      2.64s CPU      2.66s WALL (     120 calls)
     cegterg      :    248.30s CPU    252.62s WALL (      56 calls)

     Called by sum_band:
     sum_band:bec :      0.05s CPU      0.05s WALL (      56 calls)
     addusdens    :      1.10s CPU      1.19s WALL (      14 calls)

     Called by *egterg:
     h_psi        :    117.08s CPU    117.41s WALL (     250 calls)
     s_psi        :     30.34s CPU     30.40s WALL (     250 calls)
     g_psi        :      1.07s CPU      1.07s WALL (     190 calls)
     cdiaghg      :     36.96s CPU     36.99s WALL (     242 calls)

     Called by h_psi:
     add_vuspsi   :     30.29s CPU     30.34s WALL (     250 calls)

     General routines
     calbec       :     46.70s CPU     46.81s WALL (     322 calls)
     fft          :      0.39s CPU      0.40s WALL (     195 calls)
     fftw         :     57.35s CPU     57.55s WALL (   56964 calls)
     davcio       :      0.00s CPU      0.04s WALL (       4 calls)
 
     Parallel routines
     fft_scatter  :     16.16s CPU     15.91s WALL (   57159 calls)
 
     PWSCF        :  4m54.85s CPU     5m15.07s WALL

 
   This run was terminated on:  13:41:57   3Feb2016            

=------------------------------------------------------------------------------=
   JOB DONE.
=------------------------------------------------------------------------------=
