<?xml version="1.0" encoding="ISO-8859-1"?>
<modeling>
 <generator>
  <i name="program" type="string">vasp </i>
  <i name="version" type="string">5.4.1  </i>
  <i name="subversion" type="string">05Feb16 (build Mar 26 2016 11:58:25) complex                          parallel </i>
  <i name="platform" type="string">IFC91_ompi </i>
  <i name="date" type="string">2017 03 12 </i>
  <i name="time" type="string">12:13:56 </i>
 </generator>
 <incar>
  <i type="string" name="PREC">accurate</i>
  <i type="int" name="IALGO">    38</i>
  <i type="logical" name="ADDGRID"> T  </i>
  <i type="int" name="NELMIN">     5</i>
  <i type="int" name="IBRION">    -1</i>
  <i name="EDIFF">      0.00000001</i>
  <i name="ENCUT">    300.00000000</i>
  <i type="logical" name="LREAL"> F  </i>
  <i type="int" name="ISMEAR">     0</i>
  <i name="SIGMA">      0.05000000</i>
  <i type="logical" name="LWAVE"> F  </i>
  <i type="logical" name="LCHARG"> F  </i>
  <v type="int" name="KPOINT_BSE">    -1     0     0     0</v>
 </incar>
 <kpoints>
  <generation param="Monkhorst-Pack">
   <v type="int" name="divisions">       2        2        2 </v>
   <v name="usershift">      0.00000000       0.00000000       0.00000000 </v>
   <v name="genvec1">      0.50000000       0.00000000       0.00000000 </v>
   <v name="genvec2">      0.00000000       0.50000000       0.00000000 </v>
   <v name="genvec3">      0.00000000       0.00000000       0.50000000 </v>
   <v name="shift">      0.50000000       0.50000000       0.50000000 </v>
  </generation>
  <varray name="kpointlist" >
   <v>       0.25000000       0.25000000       0.25000000 </v>
   <v>      -0.25000000       0.25000000       0.25000000 </v>
   <v>       0.25000000      -0.25000000       0.25000000 </v>
   <v>      -0.25000000      -0.25000000       0.25000000 </v>
  </varray>
  <varray name="weights" >
   <v>       0.25000000 </v>
   <v>       0.25000000 </v>
   <v>       0.25000000 </v>
   <v>       0.25000000 </v>
  </varray>
 </kpoints>
 <parameters>
  <separator name="general" >
   <i type="string" name="SYSTEM">unknown system</i>
   <i type="logical" name="LCOMPAT"> F  </i>
  </separator>
  <separator name="electronic" >
   <i type="string" name="PREC">accura</i>
   <i name="ENMAX">    300.00000000</i>
   <i name="ENAUG">    322.06900000</i>
   <i name="EDIFF">      0.00000001</i>
   <i type="int" name="IALGO">    38</i>
   <i type="int" name="IWAVPR">    10</i>
   <i type="int" name="NBANDS">   164</i>
   <i name="NELECT">    256.00000000</i>
   <i type="int" name="TURBO">     0</i>
   <i type="int" name="IRESTART">     0</i>
   <i type="int" name="NREBOOT">     0</i>
   <i type="int" name="NMIN">     0</i>
   <i name="EREF">      0.00000000</i>
   <separator name="electronic smearing" >
    <i type="int" name="ISMEAR">     0</i>
    <i name="SIGMA">      0.05000000</i>
    <i name="KSPACING">      0.50000000</i>
    <i type="logical" name="KGAMMA"> T  </i>
   </separator>
   <separator name="electronic projectors" >
    <i type="logical" name="LREAL"> F  </i>
    <v name="ROPT">      0.00000000</v>
    <i type="int" name="LMAXPAW">  -100</i>
    <i type="int" name="LMAXMIX">     2</i>
    <i type="logical" name="NLSPLINE"> F  </i>
   </separator>
   <separator name="electronic startup" >
    <i type="int" name="ISTART">     0</i>
    <i type="int" name="ICHARG">     2</i>
    <i type="int" name="INIWAV">     1</i>
   </separator>
   <separator name="electronic spin" >
    <i type="int" name="ISPIN">     1</i>
    <i type="logical" name="LNONCOLLINEAR"> F  </i>
    <v name="MAGMOM">      1.00000000      1.00000000      1.00000000      1.00000000      1.00000000      1.00000000      1.00000000      1.00000000      1.00000000      1.00000000      1.00000000      1.00000000      1.00000000      1.00000000      1.00000000      1.00000000      1.00000000      1.00000000      1.00000000      1.00000000
      1.00000000      1.00000000      1.00000000      1.00000000      1.00000000      1.00000000      1.00000000      1.00000000      1.00000000      1.00000000      1.00000000      1.00000000      1.00000000      1.00000000      1.00000000      1.00000000      1.00000000      1.00000000      1.00000000      1.00000000
      1.00000000      1.00000000      1.00000000      1.00000000      1.00000000      1.00000000      1.00000000      1.00000000      1.00000000      1.00000000      1.00000000      1.00000000      1.00000000      1.00000000      1.00000000      1.00000000      1.00000000      1.00000000      1.00000000      1.00000000
      1.00000000      1.00000000      1.00000000      1.00000000</v>
    <i name="NUPDOWN">     -1.00000000</i>
    <i type="logical" name="LSORBIT"> F  </i>
    <v name="SAXIS">      0.00000000      0.00000000      1.00000000</v>
    <i type="logical" name="LSPIRAL"> F  </i>
    <v name="QSPIRAL">      0.00000000      0.00000000      0.00000000</v>
    <i type="logical" name="LZEROZ"> F  </i>
   </separator>
   <separator name="electronic exchange-correlation" >
    <i type="logical" name="LASPH"> F  </i>
    <i type="logical" name="LMETAGGA"> F  </i>
   </separator>
   <separator name="electronic convergence" >
    <i type="int" name="NELM">    60</i>
    <i type="int" name="NELMDL">    -5</i>
    <i type="int" name="NELMIN">     5</i>
    <i name="ENINI">    300.00000000</i>
    <separator name="electronic convergence detail" >
     <i type="logical" name="LDIAG"> T  </i>
     <i type="logical" name="LSUBROT"> F  </i>
     <i name="WEIMIN">      0.00000000</i>
     <i name="EBREAK">      0.00000000</i>
     <i name="DEPER">      0.30000000</i>
     <i type="int" name="NRMM">     4</i>
     <i name="TIME">      0.40000000</i>
    </separator>
   </separator>
   <separator name="electronic mixer" >
    <i name="AMIX">      0.40000000</i>
    <i name="BMIX">      1.00000000</i>
    <i name="AMIN">      0.10000000</i>
    <i name="AMIX_MAG">      1.60000000</i>
    <i name="BMIX_MAG">      1.00000000</i>
    <separator name="electronic mixer details" >
     <i type="int" name="IMIX">     4</i>
     <i type="logical" name="MIXFIRST"> F  </i>
     <i type="int" name="MAXMIX">   -45</i>
     <i name="WC">    100.00000000</i>
     <i type="int" name="INIMIX">     1</i>
     <i type="int" name="MIXPRE">     1</i>
     <i type="int" name="MREMOVE">     5</i>
    </separator>
   </separator>
   <separator name="electronic dipolcorrection" >
    <i type="logical" name="LDIPOL"> F  </i>
    <i type="logical" name="LMONO"> F  </i>
    <i type="int" name="IDIPOL">     0</i>
    <i name="EPSILON">      1.00000000</i>
    <v name="DIPOL">   -100.00000000   -100.00000000   -100.00000000</v>
    <i name="EFIELD">      0.00000000</i>
   </separator>
  </separator>
  <separator name="grids" >
   <i type="int" name="NGX">    64</i>
   <i type="int" name="NGY">    64</i>
   <i type="int" name="NGZ">    64</i>
   <i type="int" name="NGXF">   128</i>
   <i type="int" name="NGYF">   128</i>
   <i type="int" name="NGZF">   128</i>
   <i type="logical" name="ADDGRID"> T  </i>
  </separator>
  <separator name="ionic" >
   <i type="int" name="NSW">     0</i>
   <i type="int" name="IBRION">    -1</i>
   <i type="int" name="ISIF">     2</i>
   <i name="PSTRESS">      0.00000000</i>
   <i name="EDIFFG">      0.00000010</i>
   <i type="int" name="NFREE">     0</i>
   <i name="POTIM">      0.50000000</i>
   <i name="SMASS">     -3.00000000</i>
   <i name="SCALEE">      1.00000000</i>
  </separator>
  <separator name="ionic md" >
   <i name="TEBEG">      0.00010000</i>
   <i name="TEEND">      0.00010000</i>
   <i type="int" name="NBLOCK">     1</i>
   <i type="int" name="KBLOCK">     1</i>
   <i type="int" name="NPACO">   256</i>
   <i name="APACO">     16.00000000</i>
  </separator>
  <separator name="symmetry" >
   <i type="int" name="ISYM">     2</i>
   <i name="SYMPREC">      0.00001000</i>
  </separator>
  <separator name="dos" >
   <i type="logical" name="LORBIT"> F  </i>
   <v name="RWIGS">     -1.00000000</v>
   <i type="int" name="NEDOS">   301</i>
   <i name="EMIN">     10.00000000</i>
   <i name="EMAX">    -10.00000000</i>
   <i name="EFERMI">      0.00000000</i>
  </separator>
  <separator name="writing" >
   <i type="int" name="NWRITE">     2</i>
   <i type="logical" name="LWAVE"> F  </i>
   <i type="logical" name="LCHARG"> F  </i>
   <i type="logical" name="LPARD"> F  </i>
   <i type="logical" name="LVTOT"> F  </i>
   <i type="logical" name="LVHAR"> F  </i>
   <i type="logical" name="LELF"> F  </i>
   <i type="logical" name="LOPTICS"> F  </i>
   <v name="STM">      0.00000000      0.00000000      0.00000000      0.00000000      0.00000000      0.00000000      0.00000000</v>
  </separator>
  <separator name="performance" >
   <i type="int" name="NPAR">     4</i>
   <i type="int" name="NSIM">     4</i>
   <i type="int" name="NBLK">    -1</i>
   <i type="logical" name="LPLANE"> T  </i>
   <i type="logical" name="LSCALAPACK"> T  </i>
   <i type="logical" name="LSCAAWARE"> F  </i>
   <i type="logical" name="LSCALU"> F  </i>
   <i type="logical" name="LASYNC"> F  </i>
   <i type="logical" name="LORBITALREAL"> F  </i>
  </separator>
  <separator name="miscellaneous" >
   <i type="int" name="IDIOT">     3</i>
   <i type="logical" name="LMUSIC"> F  </i>
   <v name="POMASS">     28.08500000</v>
   <v name="DARWINR">      0.00000000</v>
   <v name="DARWINV">      1.00000000</v>
   <i type="logical" name="LCORR"> T  </i>
  </separator>
  <i type="logical" name="GGA_COMPAT"> T  </i>
  <i type="logical" name="LBERRY"> F  </i>
  <i type="int" name="ICORELEVEL">     0</i>
  <i type="logical" name="LDAU"> F  </i>
  <i type="int" name="I_CONSTRAINED_M">     0</i>
  <separator name="electronic exchange-correlation" >
   <i type="string" name="GGA">--</i>
   <i type="int" name="VOSKOWN">     0</i>
   <i type="logical" name="LHFCALC"> F  </i>
   <i type="string" name="PRECFOCK"></i>
   <i type="logical" name="LSYMGRAD"> F  </i>
   <i type="logical" name="LHFONE"> F  </i>
   <i type="logical" name="LRHFCALC"> F  </i>
   <i type="logical" name="LTHOMAS"> F  </i>
   <i type="logical" name="LMODELHF"> F  </i>
   <i name="ENCUT4O">     -1.00000000</i>
   <i type="int" name="EXXOEP">     0</i>
   <i type="int" name="FOURORBIT">     0</i>
   <i name="AEXX">      0.00000000</i>
   <i name="HFALPHA">      0.00000000</i>
   <i name="MCALPHA">      0.00000000</i>
   <i name="ALDAX">      1.00000000</i>
   <i name="AGGAX">      1.00000000</i>
   <i name="ALDAC">      1.00000000</i>
   <i name="AGGAC">      1.00000000</i>
   <i type="int" name="NKREDX">     1</i>
   <i type="int" name="NKREDY">     1</i>
   <i type="int" name="NKREDZ">     1</i>
   <i type="logical" name="SHIFTRED"> F  </i>
   <i type="logical" name="ODDONLY"> F  </i>
   <i type="logical" name="EVENONLY"> F  </i>
   <i type="int" name="LMAXFOCK">     0</i>
   <i type="int" name="NMAXFOCKAE">     0</i>
   <i type="logical" name="LFOCKAEDFT"> F  </i>
   <i name="HFSCREEN">      0.00000000</i>
   <i name="HFSCREENC">      0.00000000</i>
   <i type="int" name="NBANDSGWLOW">     0</i>
  </separator>
  <separator name="vdW DFT" >
   <i type="logical" name="LUSE_VDW"> F  </i>
   <i name="Zab_VDW">     -0.84910000</i>
   <i name="PARAM1">      0.12340000</i>
   <i name="PARAM2">      1.00000000</i>
   <i name="PARAM3">      0.00000000</i>
  </separator>
  <separator name="model GW" >
   <i type="int" name="MODEL_GW">     0</i>
   <i name="MODEL_EPS0">     12.24990743</i>
   <i name="MODEL_ALPHA">      1.00000000</i>
  </separator>
  <separator name="linear response parameters" >
   <i type="logical" name="LEPSILON"> F  </i>
   <i type="logical" name="LRPA"> F  </i>
   <i type="logical" name="LNABLA"> F  </i>
   <i type="logical" name="LVEL"> F  </i>
   <i type="int" name="KINTER">     0</i>
   <i name="CSHIFT">      0.10000000</i>
   <i name="OMEGAMAX">     -1.00000000</i>
   <i name="DEG_THRESHOLD">      0.00200000</i>
  </separator>
  <separator name="orbital magnetization" >
   <i type="logical" name="NUCIND"> F  </i>
   <v name="MAGPOS">      0.00000000      0.00000000      0.00000000</v>
   <i type="logical" name="LNICSALL"> T  </i>
   <i type="logical" name="ORBITALMAG"> F  </i>
   <i type="logical" name="LMAGBLOCH"> F  </i>
   <i type="logical" name="LCHIMAG"> F  </i>
   <i type="logical" name="LGAUGE"> T  </i>
   <i type="int" name="MAGATOM">     0</i>
   <v name="MAGDIPOL">      0.00000000      0.00000000      0.00000000</v>
   <v name="AVECCONST">      0.00000000      0.00000000      0.00000000</v>
  </separator>
  <separator name="response functions" >
   <i type="logical" name="LADDER"> F  </i>
   <i type="logical" name="LFXC"> F  </i>
   <i type="logical" name="LHARTREE"> T  </i>
   <i type="int" name="IBSE">     0</i>
   <v type="int" name="KPOINT">    -1     0     0     0</v>
   <i type="logical" name="LTCTE"> F  </i>
   <i type="logical" name="LTETE"> F  </i>
   <i type="logical" name="LTRIPLET"> F  </i>
   <i type="logical" name="LFXCEPS"> F  </i>
   <i type="logical" name="LFXHEG"> F  </i>
   <i type="int" name="NATURALO">     0</i>
   <i type="logical" name="L2ORDER"> F  </i>
   <i type="logical" name="LUSEW"> F  </i>
   <i name="ENCUTGW">     -2.00000000</i>
   <i name="ENCUTGWSOFT">     -2.00000000</i>
   <i name="ENCUTLF">     -1.00000000</i>
   <i type="int" name="LMAXMP2">    -1</i>
   <i name="SCISSOR">      0.00000000</i>
   <i type="int" name="NOMEGA">     0</i>
   <i type="int" name="NOMEGAR">     0</i>
   <i type="int" name="NBANDSGW">    -1</i>
   <i type="int" name="NBANDSO">    -1</i>
   <i type="int" name="NBANDSV">    -1</i>
   <i type="int" name="NELM">     1</i>
   <i type="int" name="NELMHF">     1</i>
   <i type="int" name="DIM">     3</i>
   <i type="int" name="ANTIRES">     0</i>
   <i name="OMEGAMAX">    -30.00000000</i>
   <i name="OMEGAMIN">    -30.00000000</i>
   <i name="OMEGATL">   -200.00000000</i>
   <i type="int" name="OMEGAGRID">     0</i>
   <i name="CSHIFT">     -0.10000000</i>
   <i type="logical" name="SELFENERGY"> F  </i>
   <i type="logical" name="LSPECTRAL"> F  </i>
   <i type="logical" name="LSPECTRALGW"> F  </i>
   <i type="logical" name="LSINGLES"> F  </i>
   <i type="logical" name="LFERMIGW"> F  </i>
   <i type="logical" name="ODDONLYGW"> F  </i>
   <i type="logical" name="EVENONLYGW"> F  </i>
   <i type="int" name="NKREDLFX">     1</i>
   <i type="int" name="NKREDLFY">     1</i>
   <i type="int" name="NKREDLFZ">     1</i>
   <i type="int" name="MAXMEM">  1800</i>
   <i type="int" name="TELESCOPE">     0</i>
   <i type="int" name="TAUPAR">     1</i>
   <i type="int" name="OMEGAPAR">    -1</i>
   <i name="LAMBDA">      1.00000000</i>
  </separator>
  <separator name="External order field" >
   <i name="OFIELD_KAPPA">      0.00000000</i>
   <v name="OFIELD_K">      0.00000000      0.00000000      0.00000000</v>
   <i name="OFIELD_Q6_NEAR">      0.00000000</i>
   <i name="OFIELD_Q6_FAR">      0.00000000</i>
   <i name="OFIELD_A">      0.00000000</i>
  </separator>
 </parameters>
 <atominfo>
  <atoms>      64 </atoms>
  <types>       1 </types>
  <array name="atoms" >
   <dimension dim="1">ion</dimension>
   <field type="string">element</field>
   <field type="int">atomtype</field>
   <set>
    <rc><c>Si</c><c>   1</c></rc>
    <rc><c>Si</c><c>   1</c></rc>
    <rc><c>Si</c><c>   1</c></rc>
    <rc><c>Si</c><c>   1</c></rc>
    <rc><c>Si</c><c>   1</c></rc>
    <rc><c>Si</c><c>   1</c></rc>
    <rc><c>Si</c><c>   1</c></rc>
    <rc><c>Si</c><c>   1</c></rc>
    <rc><c>Si</c><c>   1</c></rc>
    <rc><c>Si</c><c>   1</c></rc>
    <rc><c>Si</c><c>   1</c></rc>
    <rc><c>Si</c><c>   1</c></rc>
    <rc><c>Si</c><c>   1</c></rc>
    <rc><c>Si</c><c>   1</c></rc>
    <rc><c>Si</c><c>   1</c></rc>
    <rc><c>Si</c><c>   1</c></rc>
    <rc><c>Si</c><c>   1</c></rc>
    <rc><c>Si</c><c>   1</c></rc>
    <rc><c>Si</c><c>   1</c></rc>
    <rc><c>Si</c><c>   1</c></rc>
    <rc><c>Si</c><c>   1</c></rc>
    <rc><c>Si</c><c>   1</c></rc>
    <rc><c>Si</c><c>   1</c></rc>
    <rc><c>Si</c><c>   1</c></rc>
    <rc><c>Si</c><c>   1</c></rc>
    <rc><c>Si</c><c>   1</c></rc>
    <rc><c>Si</c><c>   1</c></rc>
    <rc><c>Si</c><c>   1</c></rc>
    <rc><c>Si</c><c>   1</c></rc>
    <rc><c>Si</c><c>   1</c></rc>
    <rc><c>Si</c><c>   1</c></rc>
    <rc><c>Si</c><c>   1</c></rc>
    <rc><c>Si</c><c>   1</c></rc>
    <rc><c>Si</c><c>   1</c></rc>
    <rc><c>Si</c><c>   1</c></rc>
    <rc><c>Si</c><c>   1</c></rc>
    <rc><c>Si</c><c>   1</c></rc>
    <rc><c>Si</c><c>   1</c></rc>
    <rc><c>Si</c><c>   1</c></rc>
    <rc><c>Si</c><c>   1</c></rc>
    <rc><c>Si</c><c>   1</c></rc>
    <rc><c>Si</c><c>   1</c></rc>
    <rc><c>Si</c><c>   1</c></rc>
    <rc><c>Si</c><c>   1</c></rc>
    <rc><c>Si</c><c>   1</c></rc>
    <rc><c>Si</c><c>   1</c></rc>
    <rc><c>Si</c><c>   1</c></rc>
    <rc><c>Si</c><c>   1</c></rc>
    <rc><c>Si</c><c>   1</c></rc>
    <rc><c>Si</c><c>   1</c></rc>
    <rc><c>Si</c><c>   1</c></rc>
    <rc><c>Si</c><c>   1</c></rc>
    <rc><c>Si</c><c>   1</c></rc>
    <rc><c>Si</c><c>   1</c></rc>
    <rc><c>Si</c><c>   1</c></rc>
    <rc><c>Si</c><c>   1</c></rc>
    <rc><c>Si</c><c>   1</c></rc>
    <rc><c>Si</c><c>   1</c></rc>
    <rc><c>Si</c><c>   1</c></rc>
    <rc><c>Si</c><c>   1</c></rc>
    <rc><c>Si</c><c>   1</c></rc>
    <rc><c>Si</c><c>   1</c></rc>
    <rc><c>Si</c><c>   1</c></rc>
    <rc><c>Si</c><c>   1</c></rc>
   </set>
  </array>
  <array name="atomtypes" >
   <dimension dim="1">type</dimension>
   <field type="int">atomspertype</field>
   <field type="string">element</field>
   <field>mass</field>
   <field>valence</field>
   <field type="string">pseudopotential</field>
   <set>
    <rc><c>  64</c><c>Si</c><c>     28.08500000</c><c>      4.00000000</c><c>  PAW_PBE Si 05Jan2001                  </c></rc>
   </set>
  </array>
 </atominfo>
 <structure name="initialpos" >
  <crystal>
   <varray name="basis" >
    <v>      10.93252578       0.00000000       0.00000000 </v>
    <v>       0.00000000      10.93252578       0.00000000 </v>
    <v>       0.00000000       0.00000000      10.93252578 </v>
   </varray>
   <i name="volume">   1306.65679237 </i>
   <varray name="rec_basis" >
    <v>       0.09147017       0.00000000       0.00000000 </v>
    <v>       0.00000000       0.09147017       0.00000000 </v>
    <v>       0.00000000       0.00000000       0.09147017 </v>
   </varray>
  </crystal>
  <varray name="positions" >
   <v>       0.44024411       0.43750000       0.43750000 </v>
   <v>       0.93750000       0.43750000       0.43750000 </v>
   <v>       0.43750000       0.93750000       0.43750000 </v>
   <v>       0.93750000       0.93750000       0.43750000 </v>
   <v>       0.43750000       0.43750000       0.93750000 </v>
   <v>       0.93750000       0.43750000       0.93750000 </v>
   <v>       0.43750000       0.93750000       0.93750000 </v>
   <v>       0.93555962       0.93555962       0.93750000 </v>
   <v>       0.43750000       0.18750000       0.18750000 </v>
   <v>       0.93750000       0.18750000       0.18750000 </v>
   <v>       0.43750000       0.68750000       0.18750000 </v>
   <v>       0.93750000       0.68750000       0.18750000 </v>
   <v>       0.43750000       0.18750000       0.68750000 </v>
   <v>       0.93750000       0.18750000       0.68750000 </v>
   <v>       0.43750000       0.68750000       0.68750000 </v>
   <v>       0.93750000       0.68750000       0.68750000 </v>
   <v>       0.18750000       0.43750000       0.18750000 </v>
   <v>       0.68750000       0.43750000       0.18750000 </v>
   <v>       0.18750000       0.93750000       0.18750000 </v>
   <v>       0.68750000       0.93750000       0.18750000 </v>
   <v>       0.18750000       0.43750000       0.68750000 </v>
   <v>       0.68750000       0.43750000       0.68750000 </v>
   <v>       0.18750000       0.93750000       0.68750000 </v>
   <v>       0.68750000       0.93750000       0.68750000 </v>
   <v>       0.18750000       0.18750000       0.43750000 </v>
   <v>       0.68750000       0.18750000       0.43750000 </v>
   <v>       0.18750000       0.68750000       0.43750000 </v>
   <v>       0.68750000       0.68750000       0.43750000 </v>
   <v>       0.18750000       0.18750000       0.93750000 </v>
   <v>       0.68750000       0.18750000       0.93750000 </v>
   <v>       0.18750000       0.68750000       0.93750000 </v>
   <v>       0.68750000       0.68750000       0.93750000 </v>
   <v>       0.06250000       0.06250000       0.06250000 </v>
   <v>       0.56250000       0.06250000       0.06250000 </v>
   <v>       0.06250000       0.56250000       0.06250000 </v>
   <v>       0.56250000       0.56250000       0.06250000 </v>
   <v>       0.06250000       0.06250000       0.56250000 </v>
   <v>       0.56250000       0.06250000       0.56250000 </v>
   <v>       0.06250000       0.56250000       0.56250000 </v>
   <v>       0.56250000       0.56250000       0.56250000 </v>
   <v>       0.06250000       0.31250000       0.31250000 </v>
   <v>       0.56250000       0.31250000       0.31250000 </v>
   <v>       0.06250000       0.81250000       0.31250000 </v>
   <v>       0.56250000       0.81250000       0.31250000 </v>
   <v>       0.06250000       0.31250000       0.81250000 </v>
   <v>       0.56250000       0.31250000       0.81250000 </v>
   <v>       0.06250000       0.81250000       0.81250000 </v>
   <v>       0.56250000       0.81250000       0.81250000 </v>
   <v>       0.31250000       0.06250000       0.31250000 </v>
   <v>       0.81250000       0.06250000       0.31250000 </v>
   <v>       0.31250000       0.56250000       0.31250000 </v>
   <v>       0.81250000       0.56250000       0.31250000 </v>
   <v>       0.31250000       0.06250000       0.81250000 </v>
   <v>       0.81250000       0.06250000       0.81250000 </v>
   <v>       0.31250000       0.56250000       0.81250000 </v>
   <v>       0.81250000       0.56250000       0.81250000 </v>
   <v>       0.31250000       0.31250000       0.06250000 </v>
   <v>       0.81250000       0.31250000       0.06250000 </v>
   <v>       0.31250000       0.81250000       0.06250000 </v>
   <v>       0.81250000       0.81250000       0.06250000 </v>
   <v>       0.31250000       0.31250000       0.56250000 </v>
   <v>       0.81250000       0.31250000       0.56250000 </v>
   <v>       0.31250000       0.81250000       0.56250000 </v>
   <v>       0.81250000       0.81250000       0.56250000 </v>
  </varray>
 </structure>
 <calculation>
  <scstep>
   <time name="dav">    4.22    4.22</time>
   <time name="total">    4.41    4.41</time>
   <energy>
    <i name="alphaZ">    105.52440745 </i>
    <i name="ewald">  -7265.47076298 </i>
    <i name="hartreedc">   -361.71287883 </i>
    <i name="XCdc">   -597.75714171 </i>
    <i name="pawpsdc">   5639.92317535 </i>
    <i name="pawaedc">  -4513.95313856 </i>
    <i name="eentropy">     -0.00095602 </i>
    <i name="bandstr">    857.00387354 </i>
    <i name="atom">   6596.14994790 </i>
    <i name="e_fr_energy">    459.70652614 </i>
    <i name="e_wo_entrp">    459.70748217 </i>
    <i name="e_0_energy">    459.70700416 </i>
   </energy>
  </scstep>
  <scstep>
   <time name="dav">    4.85    4.85</time>
   <time name="total">    4.85    4.85</time>
   <energy>
    <i name="e_fr_energy">   -300.07064300 </i>
    <i name="e_wo_entrp">   -300.07064300 </i>
    <i name="e_0_energy">   -300.07064300 </i>
   </energy>
  </scstep>
  <scstep>
   <time name="dav">    4.88    4.88</time>
   <time name="total">    4.88    4.89</time>
   <energy>
    <i name="e_fr_energy">   -350.93707076 </i>
    <i name="e_wo_entrp">   -350.93707076 </i>
    <i name="e_0_energy">   -350.93707076 </i>
   </energy>
  </scstep>
  <scstep>
   <time name="dav">    4.85    4.85</time>
   <time name="total">    4.85    4.87</time>
   <energy>
    <i name="e_fr_energy">   -352.26518433 </i>
    <i name="e_wo_entrp">   -352.26518433 </i>
    <i name="e_0_energy">   -352.26518433 </i>
   </energy>
  </scstep>
  <scstep>
   <time name="dav">    4.80    4.80</time>
   <time name="total">    5.03    5.09</time>
   <energy>
    <i name="e_fr_energy">   -352.31290262 </i>
    <i name="e_wo_entrp">   -352.31290262 </i>
    <i name="e_0_energy">   -352.31290262 </i>
   </energy>
  </scstep>
  <scstep>
   <time name="dav">    4.70    4.70</time>
   <time name="total">    5.11    5.11</time>
   <energy>
    <i name="e_fr_energy">   -348.58450059 </i>
    <i name="e_wo_entrp">   -348.58450059 </i>
    <i name="e_0_energy">   -348.58450059 </i>
   </energy>
  </scstep>
  <scstep>
   <time name="dav">    4.64    4.64</time>
   <time name="total">    5.06    5.07</time>
   <energy>
    <i name="e_fr_energy">   -346.87185009 </i>
    <i name="e_wo_entrp">   -346.87185009 </i>
    <i name="e_0_energy">   -346.87185009 </i>
   </energy>
  </scstep>
  <scstep>
   <time name="dav">    4.81    4.81</time>
   <time name="total">    5.22    5.24</time>
   <energy>
    <i name="e_fr_energy">   -346.89811689 </i>
    <i name="e_wo_entrp">   -346.89811689 </i>
    <i name="e_0_energy">   -346.89811689 </i>
   </energy>
  </scstep>
  <scstep>
   <time name="dav">    4.92    4.92</time>
   <time name="total">    5.33    5.34</time>
   <energy>
    <i name="e_fr_energy">   -346.90485749 </i>
    <i name="e_wo_entrp">   -346.90485749 </i>
    <i name="e_0_energy">   -346.90485749 </i>
   </energy>
  </scstep>
  <scstep>
   <time name="dav">    4.58    4.58</time>
   <time name="total">    4.99    5.00</time>
   <energy>
    <i name="e_fr_energy">   -346.90690593 </i>
    <i name="e_wo_entrp">   -346.90690593 </i>
    <i name="e_0_energy">   -346.90690593 </i>
   </energy>
  </scstep>
  <scstep>
   <time name="dav">    4.84    4.85</time>
   <time name="total">    5.25    5.26</time>
   <energy>
    <i name="e_fr_energy">   -346.90688285 </i>
    <i name="e_wo_entrp">   -346.90688285 </i>
    <i name="e_0_energy">   -346.90688285 </i>
   </energy>
  </scstep>
  <scstep>
   <time name="dav">    4.77    4.78</time>
   <time name="total">    5.18    5.19</time>
   <energy>
    <i name="e_fr_energy">   -346.90689756 </i>
    <i name="e_wo_entrp">   -346.90689756 </i>
    <i name="e_0_energy">   -346.90689756 </i>
   </energy>
  </scstep>
  <scstep>
   <time name="dav">    4.75    4.75</time>
   <time name="total">    5.17    5.17</time>
   <energy>
    <i name="e_fr_energy">   -346.90689806 </i>
    <i name="e_wo_entrp">   -346.90689806 </i>
    <i name="e_0_energy">   -346.90689806 </i>
   </energy>
  </scstep>
  <scstep>
   <time name="dav">    4.87    4.87</time>
   <time name="total">    5.28    5.29</time>
   <energy>
    <i name="e_fr_energy">   -346.90689865 </i>
    <i name="e_wo_entrp">   -346.90689865 </i>
    <i name="e_0_energy">   -346.90689865 </i>
   </energy>
  </scstep>
  <scstep>
   <time name="dav">    4.24    4.24</time>
   <time name="total">    4.65    4.66</time>
   <energy>
    <i name="e_fr_energy">   -346.90689838 </i>
    <i name="e_wo_entrp">   -346.90689838 </i>
    <i name="e_0_energy">   -346.90689838 </i>
   </energy>
  </scstep>
  <scstep>
   <time name="dav">    3.29    3.29</time>
   <time name="total">    3.70    3.72</time>
   <energy>
    <i name="e_fr_energy">   -346.90689848 </i>
    <i name="e_wo_entrp">   -346.90689848 </i>
    <i name="e_0_energy">   -346.90689848 </i>
   </energy>
  </scstep>
  <scstep>
   <time name="dav">    3.26    3.26</time>
   <time name="total">    3.66    3.68</time>
   <energy>
    <i name="e_fr_energy">   -346.90689846 </i>
    <i name="e_wo_entrp">   -346.90689846 </i>
    <i name="e_0_energy">   -346.90689846 </i>
   </energy>
  </scstep>
  <scstep>
   <time name="dav">    3.26    3.26</time>
   <time name="total">    3.67    3.68</time>
   <energy>
    <i name="e_fr_energy">   -346.90689847 </i>
    <i name="e_wo_entrp">   -346.90689847 </i>
    <i name="e_0_energy">   -346.90689847 </i>
   </energy>
  </scstep>
  <scstep>
   <time name="dav">    3.25    3.25</time>
   <time name="total">    3.43    3.44</time>
   <energy>
    <i name="alphaZ">    105.52440745 </i>
    <i name="ewald">  -7265.47076298 </i>
    <i name="hartreedc">   -485.14369512 </i>
    <i name="XCdc">   -577.61228775 </i>
    <i name="pawpsdc">  27883.43913551 </i>
    <i name="pawaedc"> -26764.15706486 </i>
    <i name="eentropy">      0.00000000 </i>
    <i name="bandstr">    160.36342137 </i>
    <i name="atom">   6596.14994790 </i>
    <i name="e_fr_energy">   -346.90689848 </i>
    <i name="e_wo_entrp">   -346.90689848 </i>
    <i name="e_0_energy">   -346.90689848 </i>
   </energy>
  </scstep>
  <structure>
   <crystal>
    <varray name="basis" >
     <v>      10.93252578       0.00000000       0.00000000 </v>
     <v>       0.00000000      10.93252578       0.00000000 </v>
     <v>       0.00000000       0.00000000      10.93252578 </v>
    </varray>
    <i name="volume">   1306.65679237 </i>
    <varray name="rec_basis" >
     <v>       0.09147017       0.00000000       0.00000000 </v>
     <v>       0.00000000       0.09147017       0.00000000 </v>
     <v>       0.00000000       0.00000000       0.09147017 </v>
    </varray>
   </crystal>
   <varray name="positions" >
    <v>       0.44024411       0.43750000       0.43750000 </v>
    <v>       0.93750000       0.43750000       0.43750000 </v>
    <v>       0.43750000       0.93750000       0.43750000 </v>
    <v>       0.93750000       0.93750000       0.43750000 </v>
    <v>       0.43750000       0.43750000       0.93750000 </v>
    <v>       0.93750000       0.43750000       0.93750000 </v>
    <v>       0.43750000       0.93750000       0.93750000 </v>
    <v>       0.93555962       0.93555962       0.93750000 </v>
    <v>       0.43750000       0.18750000       0.18750000 </v>
    <v>       0.93750000       0.18750000       0.18750000 </v>
    <v>       0.43750000       0.68750000       0.18750000 </v>
    <v>       0.93750000       0.68750000       0.18750000 </v>
    <v>       0.43750000       0.18750000       0.68750000 </v>
    <v>       0.93750000       0.18750000       0.68750000 </v>
    <v>       0.43750000       0.68750000       0.68750000 </v>
    <v>       0.93750000       0.68750000       0.68750000 </v>
    <v>       0.18750000       0.43750000       0.18750000 </v>
    <v>       0.68750000       0.43750000       0.18750000 </v>
    <v>       0.18750000       0.93750000       0.18750000 </v>
    <v>       0.68750000       0.93750000       0.18750000 </v>
    <v>       0.18750000       0.43750000       0.68750000 </v>
    <v>       0.68750000       0.43750000       0.68750000 </v>
    <v>       0.18750000       0.93750000       0.68750000 </v>
    <v>       0.68750000       0.93750000       0.68750000 </v>
    <v>       0.18750000       0.18750000       0.43750000 </v>
    <v>       0.68750000       0.18750000       0.43750000 </v>
    <v>       0.18750000       0.68750000       0.43750000 </v>
    <v>       0.68750000       0.68750000       0.43750000 </v>
    <v>       0.18750000       0.18750000       0.93750000 </v>
    <v>       0.68750000       0.18750000       0.93750000 </v>
    <v>       0.18750000       0.68750000       0.93750000 </v>
    <v>       0.68750000       0.68750000       0.93750000 </v>
    <v>       0.06250000       0.06250000       0.06250000 </v>
    <v>       0.56250000       0.06250000       0.06250000 </v>
    <v>       0.06250000       0.56250000       0.06250000 </v>
    <v>       0.56250000       0.56250000       0.06250000 </v>
    <v>       0.06250000       0.06250000       0.56250000 </v>
    <v>       0.56250000       0.06250000       0.56250000 </v>
    <v>       0.06250000       0.56250000       0.56250000 </v>
    <v>       0.56250000       0.56250000       0.56250000 </v>
    <v>       0.06250000       0.31250000       0.31250000 </v>
    <v>       0.56250000       0.31250000       0.31250000 </v>
    <v>       0.06250000       0.81250000       0.31250000 </v>
    <v>       0.56250000       0.81250000       0.31250000 </v>
    <v>       0.06250000       0.31250000       0.81250000 </v>
    <v>       0.56250000       0.31250000       0.81250000 </v>
    <v>       0.06250000       0.81250000       0.81250000 </v>
    <v>       0.56250000       0.81250000       0.81250000 </v>
    <v>       0.31250000       0.06250000       0.31250000 </v>
    <v>       0.81250000       0.06250000       0.31250000 </v>
    <v>       0.31250000       0.56250000       0.31250000 </v>
    <v>       0.81250000       0.56250000       0.31250000 </v>
    <v>       0.31250000       0.06250000       0.81250000 </v>
    <v>       0.81250000       0.06250000       0.81250000 </v>
    <v>       0.31250000       0.56250000       0.81250000 </v>
    <v>       0.81250000       0.56250000       0.81250000 </v>
    <v>       0.31250000       0.31250000       0.06250000 </v>
    <v>       0.81250000       0.31250000       0.06250000 </v>
    <v>       0.31250000       0.81250000       0.06250000 </v>
    <v>       0.81250000       0.81250000       0.06250000 </v>
    <v>       0.31250000       0.31250000       0.56250000 </v>
    <v>       0.81250000       0.31250000       0.56250000 </v>
    <v>       0.31250000       0.81250000       0.56250000 </v>
    <v>       0.81250000       0.81250000       0.56250000 </v>
   </varray>
  </structure>
  <varray name="forces" >
   <v>      -0.38754674      -0.00040772      -0.00000191 </v>
   <v>       0.00871700       0.00012437      -0.00000104 </v>
   <v>       0.00144198       0.00816755      -0.00000327 </v>
   <v>      -0.00110737      -0.00093122       0.00000713 </v>
   <v>       0.00144226       0.00012479       0.00001866 </v>
   <v>      -0.00110735      -0.00038866       0.00001367 </v>
   <v>      -0.01193926      -0.00093123       0.00001143 </v>
   <v>       0.27459567       0.27401859      -0.01409295 </v>
   <v>      -0.01304566       0.00220470       0.00424837 </v>
   <v>       0.00711758      -0.00184915      -0.00184908 </v>
   <v>      -0.01291846       0.00211666      -0.00413561 </v>
   <v>       0.00714967      -0.00194614       0.00180020 </v>
   <v>      -0.01259648      -0.00353807       0.00151296 </v>
   <v>       0.01100178      -0.00622802       0.00609745 </v>
   <v>      -0.01271696      -0.00366596      -0.00162696 </v>
   <v>       0.01096588      -0.00617316      -0.00616299 </v>
   <v>       0.00508478      -0.00283395       0.00703842 </v>
   <v>       0.00524962      -0.00291359      -0.00715898 </v>
   <v>      -0.00106254       0.00691449      -0.00393849 </v>
   <v>      -0.00115435       0.00691926       0.00387971 </v>
   <v>       0.00477292       0.00284807      -0.00671537 </v>
   <v>       0.00491005       0.00293700       0.00683202 </v>
   <v>      -0.00497519       0.01123008       0.00772820 </v>
   <v>      -0.00492757       0.01122390      -0.00778114 </v>
   <v>       0.00623683       0.00614946      -0.00300050 </v>
   <v>       0.00376149      -0.00771133      -0.00277131 </v>
   <v>       0.00362433      -0.00760350       0.00266971 </v>
   <v>       0.00639393       0.00628189       0.00309122 </v>
   <v>      -0.00684279      -0.00972362      -0.00402524 </v>
   <v>       0.00097280       0.00175396      -0.00027783 </v>
   <v>       0.00092366       0.00181308       0.00018210 </v>
   <v>      -0.00717149      -0.01003763       0.00412166 </v>
   <v>      -0.10773337      -0.10644770      -0.08305440 </v>
   <v>       0.00577414       0.00107336      -0.00083157 </v>
   <v>       0.00100266       0.00021731      -0.00091621 </v>
   <v>      -0.00240712       0.00027992      -0.00006674 </v>
   <v>       0.00078249       0.00076680      -0.00062961 </v>
   <v>      -0.00241603      -0.00391417       0.00027376 </v>
   <v>      -0.00511766      -0.00003041      -0.00002607 </v>
   <v>       0.09565885       0.06596370       0.06504978 </v>
   <v>      -0.00415766      -0.00087187      -0.00087056 </v>
   <v>       0.09671187      -0.06519695      -0.06611557 </v>
   <v>       0.00246907       0.00134225      -0.00069115 </v>
   <v>      -0.00145960      -0.00481362      -0.00125790 </v>
   <v>       0.00226984       0.00017281      -0.00036557 </v>
   <v>      -0.00149202      -0.00122415      -0.00090330 </v>
   <v>      -0.02308366      -0.02201727       0.00028790 </v>
   <v>       0.00705705       0.00100287      -0.00090703 </v>
   <v>      -0.00139133      -0.00476877       0.00128624 </v>
   <v>       0.00260539       0.00121225       0.00066948 </v>
   <v>       0.09398344      -0.06005492       0.06095396 </v>
   <v>      -0.00416362      -0.00088494       0.00085738 </v>
   <v>       0.00696543       0.00097590       0.00090955 </v>
   <v>      -0.02179971      -0.02329616       0.00178851 </v>
   <v>      -0.00144402      -0.00126197       0.00091061 </v>
   <v>       0.00235084       0.00014020       0.00041914 </v>
   <v>      -0.00228355       0.00039575       0.00004138 </v>
   <v>       0.00105083       0.00025223       0.00086402 </v>
   <v>       0.00568363       0.00106131       0.00082728 </v>
   <v>      -0.11690779      -0.11562241       0.09545415 </v>
   <v>       0.09291486       0.06080173      -0.05989761 </v>
   <v>      -0.00512950      -0.00002352      -0.00000035 </v>
   <v>      -0.00236017      -0.00396622      -0.00034487 </v>
   <v>       0.00081642       0.00079174       0.00057512 </v>
  </varray>
  <varray name="stress" >
   <v>      -0.00787043       0.01212291      -0.23690113 </v>
   <v>       0.01212288       0.01122053       0.09794642 </v>
   <v>      -0.23690114       0.09794642       0.02084804 </v>
  </varray>
  <energy>
   <i name="e_fr_energy">   -346.90689848 </i>
   <i name="e_wo_entrp">   -346.90689848 </i>
   <i name="e_0_energy">      0.00000000 </i>
  </energy>
  <time name="totalsc">   99.67   99.99</time>
  <eigenvalues>
   <array>
    <dimension dim="1">band</dimension>
    <dimension dim="2">kpoint</dimension>
    <dimension dim="3">spin</dimension>
    <field>eigene</field>
    <field>occ</field>
    <set>
     <set comment="spin 1">
      <set comment="kpoint 1">
       <r>   -5.9932    1.0000 </r>
       <r>   -5.4666    1.0000 </r>
       <r>   -5.4651    1.0000 </r>
       <r>   -5.4626    1.0000 </r>
       <r>   -4.9674    1.0000 </r>
       <r>   -4.9658    1.0000 </r>
       <r>   -4.9634    1.0000 </r>
       <r>   -4.5323    1.0000 </r>
       <r>   -4.4345    1.0000 </r>
       <r>   -4.4328    1.0000 </r>
       <r>   -4.4303    1.0000 </r>
       <r>   -4.0207    1.0000 </r>
       <r>   -4.0177    1.0000 </r>
       <r>   -4.0165    1.0000 </r>
       <r>   -4.0164    1.0000 </r>
       <r>   -4.0161    1.0000 </r>
       <r>   -4.0108    1.0000 </r>
       <r>   -3.8259    1.0000 </r>
       <r>   -3.8249    1.0000 </r>
       <r>   -3.8217    1.0000 </r>
       <r>   -3.3310    1.0000 </r>
       <r>   -3.3288    1.0000 </r>
       <r>   -3.3264    1.0000 </r>
       <r>   -2.9614    1.0000 </r>
       <r>   -2.9599    1.0000 </r>
       <r>   -2.9563    1.0000 </r>
       <r>   -2.7945    1.0000 </r>
       <r>   -2.7920    1.0000 </r>
       <r>   -2.7911    1.0000 </r>
       <r>   -2.7910    1.0000 </r>
       <r>   -2.7906    1.0000 </r>
       <r>   -2.7851    1.0000 </r>
       <r>   -1.2539    1.0000 </r>
       <r>   -1.2511    1.0000 </r>
       <r>   -1.2488    1.0000 </r>
       <r>   -1.2487    1.0000 </r>
       <r>   -1.2485    1.0000 </r>
       <r>   -1.2433    1.0000 </r>
       <r>   -1.1534    1.0000 </r>
       <r>   -1.1517    1.0000 </r>
       <r>   -1.1483    1.0000 </r>
       <r>   -1.0359    1.0000 </r>
       <r>   -1.0331    1.0000 </r>
       <r>   -1.0302    1.0000 </r>
       <r>   -0.9476    1.0000 </r>
       <r>   -0.9465    1.0000 </r>
       <r>   -0.9433    1.0000 </r>
       <r>   -0.2440    1.0000 </r>
       <r>   -0.1653    1.0000 </r>
       <r>   -0.1621    1.0000 </r>
       <r>   -0.1604    1.0000 </r>
       <r>   -0.1600    1.0000 </r>
       <r>   -0.1599    1.0000 </r>
       <r>   -0.1544    1.0000 </r>
       <r>    0.7129    1.0000 </r>
       <r>    0.7141    1.0000 </r>
       <r>    0.7172    1.0000 </r>
       <r>    1.0454    1.0000 </r>
       <r>    1.0466    1.0000 </r>
       <r>    1.0493    1.0000 </r>
       <r>    1.6547    1.0000 </r>
       <r>    1.6552    1.0000 </r>
       <r>    1.6568    1.0000 </r>
       <r>    1.6570    1.0000 </r>
       <r>    1.6579    1.0000 </r>
       <r>    1.6595    1.0000 </r>
       <r>    1.7150    1.0000 </r>
       <r>    1.7155    1.0000 </r>
       <r>    1.7175    1.0000 </r>
       <r>    2.2670    1.0000 </r>
       <r>    2.2678    1.0000 </r>
       <r>    2.2695    1.0000 </r>
       <r>    2.3672    1.0000 </r>
       <r>    2.3682    1.0000 </r>
       <r>    2.3708    1.0000 </r>
       <r>    2.3710    1.0000 </r>
       <r>    2.3722    1.0000 </r>
       <r>    2.3733    1.0000 </r>
       <r>    2.4225    1.0000 </r>
       <r>    2.4249    1.0000 </r>
       <r>    2.4272    1.0000 </r>
       <r>    2.7318    1.0000 </r>
       <r>    2.7338    1.0000 </r>
       <r>    2.7347    1.0000 </r>
       <r>    2.7350    1.0000 </r>
       <r>    2.7358    1.0000 </r>
       <r>    2.7389    1.0000 </r>
       <r>    2.9973    1.0000 </r>
       <r>    2.9993    1.0000 </r>
       <r>    2.9996    1.0000 </r>
       <r>    3.0114    1.0000 </r>
       <r>    3.0132    1.0000 </r>
       <r>    3.0159    1.0000 </r>
       <r>    3.3599    1.0000 </r>
       <r>    3.3616    1.0000 </r>
       <r>    3.3636    1.0000 </r>
       <r>    3.3834    1.0000 </r>
       <r>    3.3848    1.0000 </r>
       <r>    3.3886    1.0000 </r>
       <r>    3.4645    1.0000 </r>
       <r>    3.4665    1.0000 </r>
       <r>    3.4681    1.0000 </r>
       <r>    3.7395    1.0000 </r>
       <r>    3.7403    1.0000 </r>
       <r>    3.7411    1.0000 </r>
       <r>    3.7413    1.0000 </r>
       <r>    3.7431    1.0000 </r>
       <r>    3.7459    1.0000 </r>
       <r>    3.7782    1.0000 </r>
       <r>    3.7803    1.0000 </r>
       <r>    3.7823    1.0000 </r>
       <r>    4.0411    1.0000 </r>
       <r>    4.0961    1.0000 </r>
       <r>    4.0977    1.0000 </r>
       <r>    4.0990    1.0000 </r>
       <r>    4.3387    1.0000 </r>
       <r>    4.3409    1.0000 </r>
       <r>    4.3424    1.0000 </r>
       <r>    4.4054    1.0000 </r>
       <r>    4.4059    1.0000 </r>
       <r>    4.4094    1.0000 </r>
       <r>    4.5604    1.0000 </r>
       <r>    4.5645    1.0000 </r>
       <r>    4.8669    1.0000 </r>
       <r>    4.8698    1.0000 </r>
       <r>    4.8722    1.0000 </r>
       <r>    5.3468    1.0000 </r>
       <r>    5.3516    1.0000 </r>
       <r>    6.5614    0.0000 </r>
       <r>    6.5627    0.0000 </r>
       <r>    6.5651    0.0000 </r>
       <r>    7.0014    0.0000 </r>
       <r>    7.0046    0.0000 </r>
       <r>    7.0069    0.0000 </r>
       <r>    7.2334    0.0000 </r>
       <r>    7.4880    0.0000 </r>
       <r>    7.4905    0.0000 </r>
       <r>    7.4927    0.0000 </r>
       <r>    7.6173    0.0000 </r>
       <r>    7.6202    0.0000 </r>
       <r>    7.6216    0.0000 </r>
       <r>    7.7778    0.0000 </r>
       <r>    7.7805    0.0000 </r>
       <r>    7.7816    0.0000 </r>
       <r>    7.7991    0.0000 </r>
       <r>    7.8011    0.0000 </r>
       <r>    7.8028    0.0000 </r>
       <r>    8.0268    0.0000 </r>
       <r>    8.0297    0.0000 </r>
       <r>    8.0304    0.0000 </r>
       <r>    8.0307    0.0000 </r>
       <r>    8.0320    0.0000 </r>
       <r>    8.0343    0.0000 </r>
       <r>    8.0816    0.0000 </r>
       <r>    8.2931    0.0000 </r>
       <r>    8.2953    0.0000 </r>
       <r>    8.2966    0.0000 </r>
       <r>    8.4977    0.0000 </r>
       <r>    8.5010    0.0000 </r>
       <r>    8.5018    0.0000 </r>
       <r>    8.5029    0.0000 </r>
       <r>    8.5064    0.0000 </r>
       <r>    8.5216    0.0000 </r>
       <r>    8.5475    0.0000 </r>
      </set>
      <set comment="kpoint 2">
       <r>   -5.9931    1.0000 </r>
       <r>   -5.4666    1.0000 </r>
       <r>   -5.4645    1.0000 </r>
       <r>   -5.4635    1.0000 </r>
       <r>   -4.9671    1.0000 </r>
       <r>   -4.9651    1.0000 </r>
       <r>   -4.9642    1.0000 </r>
       <r>   -4.5317    1.0000 </r>
       <r>   -4.4340    1.0000 </r>
       <r>   -4.4322    1.0000 </r>
       <r>   -4.4309    1.0000 </r>
       <r>   -4.0216    1.0000 </r>
       <r>   -4.0166    1.0000 </r>
       <r>   -4.0165    1.0000 </r>
       <r>   -4.0161    1.0000 </r>
       <r>   -4.0157    1.0000 </r>
       <r>   -4.0136    1.0000 </r>
       <r>   -3.8268    1.0000 </r>
       <r>   -3.8238    1.0000 </r>
       <r>   -3.8230    1.0000 </r>
       <r>   -3.3291    1.0000 </r>
       <r>   -3.3278    1.0000 </r>
       <r>   -3.3257    1.0000 </r>
       <r>   -2.9618    1.0000 </r>
       <r>   -2.9592    1.0000 </r>
       <r>   -2.9576    1.0000 </r>
       <r>   -2.7952    1.0000 </r>
       <r>   -2.7912    1.0000 </r>
       <r>   -2.7909    1.0000 </r>
       <r>   -2.7904    1.0000 </r>
       <r>   -2.7897    1.0000 </r>
       <r>   -2.7878    1.0000 </r>
       <r>   -1.2533    1.0000 </r>
       <r>   -1.2492    1.0000 </r>
       <r>   -1.2487    1.0000 </r>
       <r>   -1.2484    1.0000 </r>
       <r>   -1.2481    1.0000 </r>
       <r>   -1.2449    1.0000 </r>
       <r>   -1.1526    1.0000 </r>
       <r>   -1.1499    1.0000 </r>
       <r>   -1.1489    1.0000 </r>
       <r>   -1.0337    1.0000 </r>
       <r>   -1.0321    1.0000 </r>
       <r>   -1.0297    1.0000 </r>
       <r>   -0.9533    1.0000 </r>
       <r>   -0.9467    1.0000 </r>
       <r>   -0.9460    1.0000 </r>
       <r>   -0.2464    1.0000 </r>
       <r>   -0.1627    1.0000 </r>
       <r>   -0.1604    1.0000 </r>
       <r>   -0.1602    1.0000 </r>
       <r>   -0.1598    1.0000 </r>
       <r>   -0.1582    1.0000 </r>
       <r>   -0.1550    1.0000 </r>
       <r>    0.7095    1.0000 </r>
       <r>    0.7143    1.0000 </r>
       <r>    0.7156    1.0000 </r>
       <r>    1.0453    1.0000 </r>
       <r>    1.0474    1.0000 </r>
       <r>    1.0486    1.0000 </r>
       <r>    1.6545    1.0000 </r>
       <r>    1.6554    1.0000 </r>
       <r>    1.6566    1.0000 </r>
       <r>    1.6571    1.0000 </r>
       <r>    1.6582    1.0000 </r>
       <r>    1.6593    1.0000 </r>
       <r>    1.7154    1.0000 </r>
       <r>    1.7172    1.0000 </r>
       <r>    1.7183    1.0000 </r>
       <r>    2.2654    1.0000 </r>
       <r>    2.2672    1.0000 </r>
       <r>    2.2677    1.0000 </r>
       <r>    2.3687    1.0000 </r>
       <r>    2.3696    1.0000 </r>
       <r>    2.3706    1.0000 </r>
       <r>    2.3710    1.0000 </r>
       <r>    2.3730    1.0000 </r>
       <r>    2.3738    1.0000 </r>
       <r>    2.4253    1.0000 </r>
       <r>    2.4266    1.0000 </r>
       <r>    2.4280    1.0000 </r>
       <r>    2.7318    1.0000 </r>
       <r>    2.7338    1.0000 </r>
       <r>    2.7351    1.0000 </r>
       <r>    2.7353    1.0000 </r>
       <r>    2.7359    1.0000 </r>
       <r>    2.7371    1.0000 </r>
       <r>    2.9984    1.0000 </r>
       <r>    2.9997    1.0000 </r>
       <r>    3.0003    1.0000 </r>
       <r>    3.0132    1.0000 </r>
       <r>    3.0143    1.0000 </r>
       <r>    3.0159    1.0000 </r>
       <r>    3.3588    1.0000 </r>
       <r>    3.3616    1.0000 </r>
       <r>    3.3625    1.0000 </r>
       <r>    3.3806    1.0000 </r>
       <r>    3.3835    1.0000 </r>
       <r>    3.3845    1.0000 </r>
       <r>    3.4661    1.0000 </r>
       <r>    3.4668    1.0000 </r>
       <r>    3.4685    1.0000 </r>
       <r>    3.7344    1.0000 </r>
       <r>    3.7394    1.0000 </r>
       <r>    3.7412    1.0000 </r>
       <r>    3.7414    1.0000 </r>
       <r>    3.7417    1.0000 </r>
       <r>    3.7422    1.0000 </r>
       <r>    3.7802    1.0000 </r>
       <r>    3.7807    1.0000 </r>
       <r>    3.7830    1.0000 </r>
       <r>    4.0382    1.0000 </r>
       <r>    4.0981    1.0000 </r>
       <r>    4.0989    1.0000 </r>
       <r>    4.1008    1.0000 </r>
       <r>    4.3410    1.0000 </r>
       <r>    4.3413    1.0000 </r>
       <r>    4.3437    1.0000 </r>
       <r>    4.3997    1.0000 </r>
       <r>    4.4051    1.0000 </r>
       <r>    4.4055    1.0000 </r>
       <r>    4.5619    1.0000 </r>
       <r>    4.5649    1.0000 </r>
       <r>    4.8701    1.0000 </r>
       <r>    4.8706    1.0000 </r>
       <r>    4.8739    1.0000 </r>
       <r>    5.3493    1.0000 </r>
       <r>    5.3525    1.0000 </r>
       <r>    6.5623    0.0000 </r>
       <r>    6.5648    0.0000 </r>
       <r>    6.5653    0.0000 </r>
       <r>    7.0029    0.0000 </r>
       <r>    7.0047    0.0000 </r>
       <r>    7.0067    0.0000 </r>
       <r>    7.2344    0.0000 </r>
       <r>    7.4897    0.0000 </r>
       <r>    7.4915    0.0000 </r>
       <r>    7.4932    0.0000 </r>
       <r>    7.6175    0.0000 </r>
       <r>    7.6178    0.0000 </r>
       <r>    7.6211    0.0000 </r>
       <r>    7.7790    0.0000 </r>
       <r>    7.7801    0.0000 </r>
       <r>    7.7818    0.0000 </r>
       <r>    7.8002    0.0000 </r>
       <r>    7.8010    0.0000 </r>
       <r>    7.8029    0.0000 </r>
       <r>    8.0257    0.0000 </r>
       <r>    8.0268    0.0000 </r>
       <r>    8.0306    0.0000 </r>
       <r>    8.0308    0.0000 </r>
       <r>    8.0309    0.0000 </r>
       <r>    8.0326    0.0000 </r>
       <r>    8.0827    0.0000 </r>
       <r>    8.2941    0.0000 </r>
       <r>    8.2948    0.0000 </r>
       <r>    8.2965    0.0000 </r>
       <r>    8.4968    0.0000 </r>
       <r>    8.4996    0.0000 </r>
       <r>    8.5020    0.0000 </r>
       <r>    8.5033    0.0000 </r>
       <r>    8.5081    0.0000 </r>
       <r>    8.5220    0.0000 </r>
       <r>    8.5391    0.0000 </r>
      </set>
      <set comment="kpoint 3">
       <r>   -5.9932    1.0000 </r>
       <r>   -5.4659    1.0000 </r>
       <r>   -5.4650    1.0000 </r>
       <r>   -5.4632    1.0000 </r>
       <r>   -4.9667    1.0000 </r>
       <r>   -4.9658    1.0000 </r>
       <r>   -4.9640    1.0000 </r>
       <r>   -4.5327    1.0000 </r>
       <r>   -4.4340    1.0000 </r>
       <r>   -4.4329    1.0000 </r>
       <r>   -4.4313    1.0000 </r>
       <r>   -4.0191    1.0000 </r>
       <r>   -4.0172    1.0000 </r>
       <r>   -4.0168    1.0000 </r>
       <r>   -4.0162    1.0000 </r>
       <r>   -4.0161    1.0000 </r>
       <r>   -4.0118    1.0000 </r>
       <r>   -3.8257    1.0000 </r>
       <r>   -3.8244    1.0000 </r>
       <r>   -3.8216    1.0000 </r>
       <r>   -3.3313    1.0000 </r>
       <r>   -3.3289    1.0000 </r>
       <r>   -3.3277    1.0000 </r>
       <r>   -2.9606    1.0000 </r>
       <r>   -2.9599    1.0000 </r>
       <r>   -2.9570    1.0000 </r>
       <r>   -2.7938    1.0000 </r>
       <r>   -2.7915    1.0000 </r>
       <r>   -2.7910    1.0000 </r>
       <r>   -2.7908    1.0000 </r>
       <r>   -2.7906    1.0000 </r>
       <r>   -2.7859    1.0000 </r>
       <r>   -1.2526    1.0000 </r>
       <r>   -1.2507    1.0000 </r>
       <r>   -1.2491    1.0000 </r>
       <r>   -1.2486    1.0000 </r>
       <r>   -1.2485    1.0000 </r>
       <r>   -1.2459    1.0000 </r>
       <r>   -1.1532    1.0000 </r>
       <r>   -1.1514    1.0000 </r>
       <r>   -1.1493    1.0000 </r>
       <r>   -1.0358    1.0000 </r>
       <r>   -1.0330    1.0000 </r>
       <r>   -1.0316    1.0000 </r>
       <r>   -0.9476    1.0000 </r>
       <r>   -0.9468    1.0000 </r>
       <r>   -0.9394    1.0000 </r>
       <r>   -0.2429    1.0000 </r>
       <r>   -0.1650    1.0000 </r>
       <r>   -0.1620    1.0000 </r>
       <r>   -0.1606    1.0000 </r>
       <r>   -0.1601    1.0000 </r>
       <r>   -0.1599    1.0000 </r>
       <r>   -0.1572    1.0000 </r>
       <r>    0.7130    1.0000 </r>
       <r>    0.7143    1.0000 </r>
       <r>    0.7191    1.0000 </r>
       <r>    1.0455    1.0000 </r>
       <r>    1.0468    1.0000 </r>
       <r>    1.0489    1.0000 </r>
       <r>    1.6544    1.0000 </r>
       <r>    1.6557    1.0000 </r>
       <r>    1.6567    1.0000 </r>
       <r>    1.6570    1.0000 </r>
       <r>    1.6576    1.0000 </r>
       <r>    1.6590    1.0000 </r>
       <r>    1.7142    1.0000 </r>
       <r>    1.7159    1.0000 </r>
       <r>    1.7176    1.0000 </r>
       <r>    2.2678    1.0000 </r>
       <r>    2.2681    1.0000 </r>
       <r>    2.2700    1.0000 </r>
       <r>    2.3663    1.0000 </r>
       <r>    2.3671    1.0000 </r>
       <r>    2.3708    1.0000 </r>
       <r>    2.3711    1.0000 </r>
       <r>    2.3717    1.0000 </r>
       <r>    2.3725    1.0000 </r>
       <r>    2.4226    1.0000 </r>
       <r>    2.4246    1.0000 </r>
       <r>    2.4263    1.0000 </r>
       <r>    2.7328    1.0000 </r>
       <r>    2.7340    1.0000 </r>
       <r>    2.7345    1.0000 </r>
       <r>    2.7347    1.0000 </r>
       <r>    2.7358    1.0000 </r>
       <r>    2.7382    1.0000 </r>
       <r>    2.9972    1.0000 </r>
       <r>    2.9984    1.0000 </r>
       <r>    2.9994    1.0000 </r>
       <r>    3.0117    1.0000 </r>
       <r>    3.0130    1.0000 </r>
       <r>    3.0151    1.0000 </r>
       <r>    3.3615    1.0000 </r>
       <r>    3.3623    1.0000 </r>
       <r>    3.3646    1.0000 </r>
       <r>    3.3841    1.0000 </r>
       <r>    3.3848    1.0000 </r>
       <r>    3.3888    1.0000 </r>
       <r>    3.4646    1.0000 </r>
       <r>    3.4663    1.0000 </r>
       <r>    3.4672    1.0000 </r>
       <r>    3.7405    1.0000 </r>
       <r>    3.7409    1.0000 </r>
       <r>    3.7411    1.0000 </r>
       <r>    3.7416    1.0000 </r>
       <r>    3.7433    1.0000 </r>
       <r>    3.7485    1.0000 </r>
       <r>    3.7785    1.0000 </r>
       <r>    3.7801    1.0000 </r>
       <r>    3.7814    1.0000 </r>
       <r>    4.0420    1.0000 </r>
       <r>    4.0955    1.0000 </r>
       <r>    4.0975    1.0000 </r>
       <r>    4.0983    1.0000 </r>
       <r>    4.3384    1.0000 </r>
       <r>    4.3406    1.0000 </r>
       <r>    4.3413    1.0000 </r>
       <r>    4.4057    1.0000 </r>
       <r>    4.4061    1.0000 </r>
       <r>    4.4123    1.0000 </r>
       <r>    4.5607    1.0000 </r>
       <r>    4.5636    1.0000 </r>
       <r>    4.8667    1.0000 </r>
       <r>    4.8695    1.0000 </r>
       <r>    4.8705    1.0000 </r>
       <r>    5.3469    1.0000 </r>
       <r>    5.3503    1.0000 </r>
       <r>    6.5616    0.0000 </r>
       <r>    6.5618    0.0000 </r>
       <r>    6.5643    0.0000 </r>
       <r>    7.0021    0.0000 </r>
       <r>    7.0041    0.0000 </r>
       <r>    7.0060    0.0000 </r>
       <r>    7.2330    0.0000 </r>
       <r>    7.4883    0.0000 </r>
       <r>    7.4896    0.0000 </r>
       <r>    7.4917    0.0000 </r>
       <r>    7.6182    0.0000 </r>
       <r>    7.6204    0.0000 </r>
       <r>    7.6218    0.0000 </r>
       <r>    7.7783    0.0000 </r>
       <r>    7.7800    0.0000 </r>
       <r>    7.7813    0.0000 </r>
       <r>    7.7992    0.0000 </r>
       <r>    7.8010    0.0000 </r>
       <r>    7.8018    0.0000 </r>
       <r>    8.0285    0.0000 </r>
       <r>    8.0303    0.0000 </r>
       <r>    8.0304    0.0000 </r>
       <r>    8.0307    0.0000 </r>
       <r>    8.0328    0.0000 </r>
       <r>    8.0349    0.0000 </r>
       <r>    8.0806    0.0000 </r>
       <r>    8.2936    0.0000 </r>
       <r>    8.2951    0.0000 </r>
       <r>    8.2961    0.0000 </r>
       <r>    8.4976    0.0000 </r>
       <r>    8.5013    0.0000 </r>
       <r>    8.5016    0.0000 </r>
       <r>    8.5040    0.0000 </r>
       <r>    8.5054    0.0000 </r>
       <r>    8.5170    0.0000 </r>
       <r>    8.5417    0.0000 </r>
      </set>
      <set comment="kpoint 4">
       <r>   -5.9932    1.0000 </r>
       <r>   -5.4670    1.0000 </r>
       <r>   -5.4643    1.0000 </r>
       <r>   -5.4630    1.0000 </r>
       <r>   -4.9678    1.0000 </r>
       <r>   -4.9651    1.0000 </r>
       <r>   -4.9638    1.0000 </r>
       <r>   -4.5319    1.0000 </r>
       <r>   -4.4346    1.0000 </r>
       <r>   -4.4320    1.0000 </r>
       <r>   -4.4306    1.0000 </r>
       <r>   -4.0223    1.0000 </r>
       <r>   -4.0166    1.0000 </r>
       <r>   -4.0163    1.0000 </r>
       <r>   -4.0161    1.0000 </r>
       <r>   -4.0154    1.0000 </r>
       <r>   -4.0127    1.0000 </r>
       <r>   -3.8270    1.0000 </r>
       <r>   -3.8238    1.0000 </r>
       <r>   -3.8224    1.0000 </r>
       <r>   -3.3303    1.0000 </r>
       <r>   -3.3278    1.0000 </r>
       <r>   -3.3259    1.0000 </r>
       <r>   -2.9620    1.0000 </r>
       <r>   -2.9587    1.0000 </r>
       <r>   -2.9573    1.0000 </r>
       <r>   -2.7963    1.0000 </r>
       <r>   -2.7912    1.0000 </r>
       <r>   -2.7908    1.0000 </r>
       <r>   -2.7907    1.0000 </r>
       <r>   -2.7894    1.0000 </r>
       <r>   -2.7867    1.0000 </r>
       <r>   -1.2548    1.0000 </r>
       <r>   -1.2489    1.0000 </r>
       <r>   -1.2486    1.0000 </r>
       <r>   -1.2485    1.0000 </r>
       <r>   -1.2478    1.0000 </r>
       <r>   -1.2446    1.0000 </r>
       <r>   -1.1539    1.0000 </r>
       <r>   -1.1501    1.0000 </r>
       <r>   -1.1485    1.0000 </r>
       <r>   -1.0352    1.0000 </r>
       <r>   -1.0322    1.0000 </r>
       <r>   -1.0298    1.0000 </r>
       <r>   -0.9492    1.0000 </r>
       <r>   -0.9471    1.0000 </r>
       <r>   -0.9460    1.0000 </r>
       <r>   -0.2454    1.0000 </r>
       <r>   -0.1655    1.0000 </r>
       <r>   -0.1604    1.0000 </r>
       <r>   -0.1603    1.0000 </r>
       <r>   -0.1599    1.0000 </r>
       <r>   -0.1576    1.0000 </r>
       <r>   -0.1548    1.0000 </r>
       <r>    0.7113    1.0000 </r>
       <r>    0.7143    1.0000 </r>
       <r>    0.7157    1.0000 </r>
       <r>    1.0449    1.0000 </r>
       <r>    1.0477    1.0000 </r>
       <r>    1.0488    1.0000 </r>
       <r>    1.6545    1.0000 </r>
       <r>    1.6553    1.0000 </r>
       <r>    1.6568    1.0000 </r>
       <r>    1.6572    1.0000 </r>
       <r>    1.6583    1.0000 </r>
       <r>    1.6593    1.0000 </r>
       <r>    1.7148    1.0000 </r>
       <r>    1.7169    1.0000 </r>
       <r>    1.7176    1.0000 </r>
       <r>    2.2659    1.0000 </r>
       <r>    2.2678    1.0000 </r>
       <r>    2.2684    1.0000 </r>
       <r>    2.3683    1.0000 </r>
       <r>    2.3688    1.0000 </r>
       <r>    2.3708    1.0000 </r>
       <r>    2.3711    1.0000 </r>
       <r>    2.3726    1.0000 </r>
       <r>    2.3742    1.0000 </r>
       <r>    2.4233    1.0000 </r>
       <r>    2.4265    1.0000 </r>
       <r>    2.4275    1.0000 </r>
       <r>    2.7312    1.0000 </r>
       <r>    2.7341    1.0000 </r>
       <r>    2.7348    1.0000 </r>
       <r>    2.7352    1.0000 </r>
       <r>    2.7361    1.0000 </r>
       <r>    2.7381    1.0000 </r>
       <r>    2.9975    1.0000 </r>
       <r>    2.9995    1.0000 </r>
       <r>    3.0005    1.0000 </r>
       <r>    3.0120    1.0000 </r>
       <r>    3.0147    1.0000 </r>
       <r>    3.0154    1.0000 </r>
       <r>    3.3580    1.0000 </r>
       <r>    3.3618    1.0000 </r>
       <r>    3.3629    1.0000 </r>
       <r>    3.3827    1.0000 </r>
       <r>    3.3847    1.0000 </r>
       <r>    3.3858    1.0000 </r>
       <r>    3.4651    1.0000 </r>
       <r>    3.4666    1.0000 </r>
       <r>    3.4687    1.0000 </r>
       <r>    3.7369    1.0000 </r>
       <r>    3.7395    1.0000 </r>
       <r>    3.7413    1.0000 </r>
       <r>    3.7415    1.0000 </r>
       <r>    3.7424    1.0000 </r>
       <r>    3.7432    1.0000 </r>
       <r>    3.7788    1.0000 </r>
       <r>    3.7805    1.0000 </r>
       <r>    3.7831    1.0000 </r>
       <r>    4.0395    1.0000 </r>
       <r>    4.0971    1.0000 </r>
       <r>    4.0979    1.0000 </r>
       <r>    4.1005    1.0000 </r>
       <r>    4.3396    1.0000 </r>
       <r>    4.3411    1.0000 </r>
       <r>    4.3437    1.0000 </r>
       <r>    4.4037    1.0000 </r>
       <r>    4.4054    1.0000 </r>
       <r>    4.4059    1.0000 </r>
       <r>    4.5608    1.0000 </r>
       <r>    4.5652    1.0000 </r>
       <r>    4.8685    1.0000 </r>
       <r>    4.8700    1.0000 </r>
       <r>    4.8736    1.0000 </r>
       <r>    5.3478    1.0000 </r>
       <r>    5.3525    1.0000 </r>
       <r>    6.5616    0.0000 </r>
       <r>    6.5641    0.0000 </r>
       <r>    6.5654    0.0000 </r>
       <r>    7.0020    0.0000 </r>
       <r>    7.0044    0.0000 </r>
       <r>    7.0075    0.0000 </r>
       <r>    7.2340    0.0000 </r>
       <r>    7.4886    0.0000 </r>
       <r>    7.4909    0.0000 </r>
       <r>    7.4936    0.0000 </r>
       <r>    7.6172    0.0000 </r>
       <r>    7.6185    0.0000 </r>
       <r>    7.6217    0.0000 </r>
       <r>    7.7786    0.0000 </r>
       <r>    7.7797    0.0000 </r>
       <r>    7.7822    0.0000 </r>
       <r>    7.7995    0.0000 </r>
       <r>    7.8010    0.0000 </r>
       <r>    7.8034    0.0000 </r>
       <r>    8.0256    0.0000 </r>
       <r>    8.0282    0.0000 </r>
       <r>    8.0304    0.0000 </r>
       <r>    8.0308    0.0000 </r>
       <r>    8.0312    0.0000 </r>
       <r>    8.0335    0.0000 </r>
       <r>    8.0824    0.0000 </r>
       <r>    8.2934    0.0000 </r>
       <r>    8.2948    0.0000 </r>
       <r>    8.2970    0.0000 </r>
       <r>    8.4957    0.0000 </r>
       <r>    8.5012    0.0000 </r>
       <r>    8.5019    0.0000 </r>
       <r>    8.5043    0.0000 </r>
       <r>    8.5077    0.0000 </r>
       <r>    8.5110    0.0000 </r>
       <r>    8.5399    0.0000 </r>
      </set>
     </set>
    </set>
   </array>
  </eigenvalues>
  <separator name="orbital magnetization" >
   <v name="MAGDIPOLOUT">      0.00000000      0.00000000      0.00000000</v>
  </separator>
  <dos>
   <i name="efermi">      5.59909117 </i>
   <total>
    <array>
     <dimension dim="1">gridpoints</dimension>
     <dimension dim="2">spin</dimension>
     <field>energy</field>
     <field>total</field>
     <field>integrated</field>
     <set>
      <set comment="spin 1">
       <r>    -6.7202     0.0000     0.0000 </r>
       <r>    -6.6669     0.0000     0.0000 </r>
       <r>    -6.6136     0.0000     0.0000 </r>
       <r>    -6.5603     0.0000     0.0000 </r>
       <r>    -6.5070     0.0000     0.0000 </r>
       <r>    -6.4537     0.0000     0.0000 </r>
       <r>    -6.4003     0.0000     0.0000 </r>
       <r>    -6.3470     0.0000     0.0000 </r>
       <r>    -6.2937     0.0000     0.0000 </r>
       <r>    -6.2404     0.0000     0.0000 </r>
       <r>    -6.1871     0.0000     0.0000 </r>
       <r>    -6.1338     0.0013     0.0001 </r>
       <r>    -6.0804     0.2532     0.0136 </r>
       <r>    -6.0271     6.0627     0.3368 </r>
       <r>    -5.9738    20.2409     1.4160 </r>
       <r>    -5.9205    10.2071     1.9602 </r>
       <r>    -5.8672     0.7402     1.9996 </r>
       <r>    -5.8139     0.0069     2.0000 </r>
       <r>    -5.7606     0.0000     2.0000 </r>
       <r>    -5.7072     0.0000     2.0000 </r>
       <r>    -5.6539     0.0000     2.0000 </r>
       <r>    -5.6006     0.0070     2.0004 </r>
       <r>    -5.5473     1.1021     2.0591 </r>
       <r>    -5.4940    21.9226     3.2280 </r>
       <r>    -5.4407    61.6259     6.5136 </r>
       <r>    -5.3873    26.2673     7.9141 </r>
       <r>    -5.3340     1.5992     7.9993 </r>
       <r>    -5.2807     0.0124     8.0000 </r>
       <r>    -5.2274     0.0000     8.0000 </r>
       <r>    -5.1741     0.0000     8.0000 </r>
       <r>    -5.1208     0.0006     8.0000 </r>
       <r>    -5.0674     0.2227     8.0119 </r>
       <r>    -5.0141     9.3140     8.5085 </r>
       <r>    -4.9608    52.6828    11.3173 </r>
       <r>    -4.9075    44.6300    13.6968 </r>
       <r>    -4.8542     5.5934    13.9950 </r>
       <r>    -4.8009     0.0928    14.0000 </r>
       <r>    -4.7475     0.0002    14.0000 </r>
       <r>    -4.6942     0.0001    14.0000 </r>
       <r>    -4.6409     0.0393    14.0021 </r>
       <r>    -4.5876     2.1542    14.1170 </r>
       <r>    -4.5343    15.8925    14.9643 </r>
       <r>    -4.4810    26.2669    16.3647 </r>
       <r>    -4.4277    55.5004    19.3238 </r>
       <r>    -4.3743    44.5549    21.6993 </r>
       <r>    -4.3210     5.5487    21.9951 </r>
       <r>    -4.2677     0.0916    22.0000 </r>
       <r>    -4.2144     0.0002    22.0000 </r>
       <r>    -4.1611     0.0051    22.0003 </r>
       <r>    -4.1078     1.1233    22.0602 </r>
       <r>    -4.0544    30.8455    23.7047 </r>
       <r>    -4.0011   118.2392    30.0088 </r>
       <r>    -3.9478    68.9464    33.6847 </r>
       <r>    -3.8945     8.5064    34.1382 </r>
       <r>    -3.8412    33.0020    35.8978 </r>
       <r>    -3.7879    59.8389    39.0881 </r>
       <r>    -3.7345    16.4686    39.9662 </r>
       <r>    -3.6812     0.6314    39.9998 </r>
       <r>    -3.6279     0.0030    40.0000 </r>
       <r>    -3.5746     0.0000    40.0000 </r>
       <r>    -3.5213     0.0000    40.0000 </r>
       <r>    -3.4680     0.0045    40.0002 </r>
       <r>    -3.4146     0.8286    40.0444 </r>
       <r>    -3.3613    18.9638    41.0555 </r>
       <r>    -3.3080    60.9324    44.3042 </r>
       <r>    -3.2547    29.7014    45.8877 </r>
       <r>    -3.2014     2.0871    45.9990 </r>
       <r>    -3.1481     0.0188    46.0000 </r>
       <r>    -3.0948     0.0074    46.0004 </r>
       <r>    -3.0414     1.1392    46.0611 </r>
       <r>    -2.9881    22.2596    47.2479 </r>
       <r>    -2.9348    61.6414    50.5344 </r>
       <r>    -2.8815    27.0969    51.9791 </r>
       <r>    -2.8282    33.1421    53.7461 </r>
       <r>    -2.7749   118.7361    60.0766 </r>
       <r>    -2.7215    67.8593    63.6946 </r>
       <r>    -2.6682     5.6662    63.9967 </r>
       <r>    -2.6149     0.0616    64.0000 </r>
       <r>    -2.5616     0.0001    64.0000 </r>
       <r>    -2.5083     0.0000    64.0000 </r>
       <r>    -2.4550     0.0000    64.0000 </r>
       <r>    -2.4016     0.0000    64.0000 </r>
       <r>    -2.3483     0.0000    64.0000 </r>
       <r>    -2.2950     0.0000    64.0000 </r>
       <r>    -2.2417     0.0000    64.0000 </r>
       <r>    -2.1884     0.0000    64.0000 </r>
       <r>    -2.1351     0.0000    64.0000 </r>
       <r>    -2.0817     0.0000    64.0000 </r>
       <r>    -2.0284     0.0000    64.0000 </r>
       <r>    -1.9751     0.0000    64.0000 </r>
       <r>    -1.9218     0.0000    64.0000 </r>
       <r>    -1.8685     0.0000    64.0000 </r>
       <r>    -1.8152     0.0000    64.0000 </r>
       <r>    -1.7619     0.0000    64.0000 </r>
       <r>    -1.7085     0.0000    64.0000 </r>
       <r>    -1.6552     0.0000    64.0000 </r>
       <r>    -1.6019     0.0000    64.0000 </r>
       <r>    -1.5486     0.0000    64.0000 </r>
       <r>    -1.4953     0.0000    64.0000 </r>
       <r>    -1.4420     0.0000    64.0000 </r>
       <r>    -1.3886     0.0092    64.0005 </r>
       <r>    -1.3353     1.6671    64.0894 </r>
       <r>    -1.2820    37.9065    66.1104 </r>
       <r>    -1.2287   123.2334    72.6807 </r>
       <r>    -1.1754    85.5693    77.2429 </r>
       <r>    -1.1221    66.5042    80.7887 </r>
       <r>    -1.0687    38.9882    82.8674 </r>
       <r>    -1.0154    64.0056    86.2799 </r>
       <r>    -0.9621    66.9472    89.8492 </r>
       <r>    -0.9088    61.7071    93.1392 </r>
       <r>    -0.8555    15.5691    93.9693 </r>
       <r>    -0.8022     0.5731    93.9999 </r>
       <r>    -0.7488     0.0026    94.0000 </r>
       <r>    -0.6955     0.0000    94.0000 </r>
       <r>    -0.6422     0.0000    94.0000 </r>
       <r>    -0.5889     0.0000    94.0000 </r>
       <r>    -0.5356     0.0000    94.0000 </r>
       <r>    -0.4823     0.0000    94.0000 </r>
       <r>    -0.4290     0.0000    94.0000 </r>
       <r>    -0.3756     0.0040    94.0002 </r>
       <r>    -0.3223     0.5251    94.0282 </r>
       <r>    -0.2690     8.9311    94.5044 </r>
       <r>    -0.2157    33.4804    96.2894 </r>
       <r>    -0.1624   100.9594   101.6722 </r>
       <r>    -0.1091   101.7746   107.0984 </r>
       <r>    -0.0557    16.5433   107.9804 </r>
       <r>    -0.0024     0.3664   107.9999 </r>
       <r>     0.0509     0.0010   108.0000 </r>
       <r>     0.1042     0.0000   108.0000 </r>
       <r>     0.1575     0.0000   108.0000 </r>
       <r>     0.2108     0.0000   108.0000 </r>
       <r>     0.2642     0.0000   108.0000 </r>
       <r>     0.3175     0.0000   108.0000 </r>
       <r>     0.3708     0.0000   108.0000 </r>
       <r>     0.4241     0.0000   108.0000 </r>
       <r>     0.4774     0.0000   108.0000 </r>
       <r>     0.5307     0.0000   108.0000 </r>
       <r>     0.5841     0.0134   108.0007 </r>
       <r>     0.6374     1.6741   108.0900 </r>
       <r>     0.6907    26.7619   109.5168 </r>
       <r>     0.7440    61.4910   112.7953 </r>
       <r>     0.7973    21.5206   113.9427 </r>
       <r>     0.8506     1.0688   113.9996 </r>
       <r>     0.9039     0.0096   114.0002 </r>
       <r>     0.9573     0.6238   114.0334 </r>
       <r>     1.0106    16.3782   114.9066 </r>
       <r>     1.0639    59.8091   118.0954 </r>
       <r>     1.1172    33.0477   119.8574 </r>
       <r>     1.1705     2.6474   119.9985 </r>
       <r>     1.2238     0.0273   120.0000 </r>
       <r>     1.2772     0.0000   120.0000 </r>
       <r>     1.3305     0.0000   120.0000 </r>
       <r>     1.3838     0.0000   120.0000 </r>
       <r>     1.4371     0.0000   120.0000 </r>
       <r>     1.4904     0.0003   120.0000 </r>
       <r>     1.5437     0.1568   120.0084 </r>
       <r>     1.5971    10.1499   120.5495 </r>
       <r>     1.6504    89.4401   125.3181 </r>
       <r>     1.7037   145.0415   133.0512 </r>
       <r>     1.7570    78.2331   137.2222 </r>
       <r>     1.8103    14.1432   137.9763 </r>
       <r>     1.8636     0.4429   137.9999 </r>
       <r>     1.9170     0.0018   138.0000 </r>
       <r>     1.9703     0.0000   138.0000 </r>
       <r>     2.0236     0.0000   138.0000 </r>
       <r>     2.0769     0.0000   138.0000 </r>
       <r>     2.1302     0.0057   138.0003 </r>
       <r>     2.1835     0.9688   138.0520 </r>
       <r>     2.2369    20.5816   139.1493 </r>
       <r>     2.2902    64.0014   142.5616 </r>
       <r>     2.3435    76.2664   146.6278 </r>
       <r>     2.3968   147.5887   154.4967 </r>
       <r>     2.4501   110.6036   160.3936 </r>
       <r>     2.5034    28.5568   161.9161 </r>
       <r>     2.5567     1.5614   161.9994 </r>
       <r>     2.6101     0.0589   162.0025 </r>
       <r>     2.6634     4.8194   162.2595 </r>
       <r>     2.7167    63.3513   165.6371 </r>
       <r>     2.7700   120.6134   172.0677 </r>
       <r>     2.8233    34.8284   173.9247 </r>
       <r>     2.8766     1.4429   174.0016 </r>
       <r>     2.9300     3.8551   174.2071 </r>
       <r>     2.9833    54.9926   177.1391 </r>
       <r>     3.0366   120.7963   183.5795 </r>
       <r>     3.0899    43.0551   185.8750 </r>
       <r>     3.1432     2.3274   185.9991 </r>
       <r>     3.1965     0.0171   186.0000 </r>
       <r>     3.2499     0.0976   186.0052 </r>
       <r>     3.3032     6.6655   186.3606 </r>
       <r>     3.3565    67.1000   189.9381 </r>
       <r>     3.4098   120.6339   196.3698 </r>
       <r>     3.4631    80.7134   200.6731 </r>
       <r>     3.5164    53.4509   203.5229 </r>
       <r>     3.5698     8.7488   203.9894 </r>
       <r>     3.6231     0.2948   204.0051 </r>
       <r>     3.6764     7.6118   204.4109 </r>
       <r>     3.7297    84.3085   208.9059 </r>
       <r>     3.7830   165.4085   217.7248 </r>
       <r>     3.8363    72.8720   221.6101 </r>
       <r>     3.8896     7.1947   221.9937 </r>
       <r>     3.9430     0.2314   222.0060 </r>
       <r>     3.9963     4.1344   222.2264 </r>
       <r>     4.0496    28.0143   223.7201 </r>
       <r>     4.1029    66.1446   227.2466 </r>
       <r>     4.1562    45.9632   229.6972 </r>
       <r>     4.2095     5.5985   229.9957 </r>
       <r>     4.2629     1.6099   230.0815 </r>
       <r>     4.3162    26.2294   231.4800 </r>
       <r>     4.3695    78.2183   235.6503 </r>
       <r>     4.4228    82.3267   240.0396 </r>
       <r>     4.4761    34.6257   241.8857 </r>
       <r>     4.5294    15.1252   242.6921 </r>
       <r>     4.5828    40.5845   244.8559 </r>
       <r>     4.6361    20.0194   245.9233 </r>
       <r>     4.6894     1.4262   245.9993 </r>
       <r>     4.7427     0.0310   246.0010 </r>
       <r>     4.7960     2.0249   246.1089 </r>
       <r>     4.8493    29.2613   247.6690 </r>
       <r>     4.9027    61.0207   250.9224 </r>
       <r>     4.9560    19.3433   251.9537 </r>
       <r>     5.0093     0.8636   251.9997 </r>
       <r>     5.0626     0.0048   252.0000 </r>
       <r>     5.1159     0.0000   252.0000 </r>
       <r>     5.1692     0.0000   252.0000 </r>
       <r>     5.2225     0.0124   252.0007 </r>
       <r>     5.2759     1.3783   252.0741 </r>
       <r>     5.3292    19.6892   253.1239 </r>
       <r>     5.3825    40.6301   255.2901 </r>
       <r>     5.4358    12.7481   255.9698 </r>
       <r>     5.4891     0.5631   255.9998 </r>
       <r>     5.5424     0.0031   256.0000 </r>
       <r>     5.5958     0.0000   256.0000 </r>
       <r>     5.6491     0.0000   256.0000 </r>
       <r>     5.7024     0.0000   256.0000 </r>
       <r>     5.7557     0.0000   256.0000 </r>
       <r>     5.8090     0.0000   256.0000 </r>
       <r>     5.8623     0.0000   256.0000 </r>
       <r>     5.9157     0.0000   256.0000 </r>
       <r>     5.9690     0.0000   256.0000 </r>
       <r>     6.0223     0.0000   256.0000 </r>
       <r>     6.0756     0.0000   256.0000 </r>
       <r>     6.1289     0.0000   256.0000 </r>
       <r>     6.1822     0.0000   256.0000 </r>
       <r>     6.2356     0.0000   256.0000 </r>
       <r>     6.2889     0.0000   256.0000 </r>
       <r>     6.3422     0.0000   256.0000 </r>
       <r>     6.3955     0.0001   256.0000 </r>
       <r>     6.4488     0.0679   256.0036 </r>
       <r>     6.5021     4.6344   256.2507 </r>
       <r>     6.5554    41.6036   258.4688 </r>
       <r>     6.6088    55.0022   261.4013 </r>
       <r>     6.6621    10.9314   261.9842 </r>
       <r>     6.7154     0.2961   261.9999 </r>
       <r>     6.7687     0.0010   262.0000 </r>
       <r>     6.8220     0.0000   262.0000 </r>
       <r>     6.8753     0.0150   262.0008 </r>
       <r>     6.9287     1.8043   262.0970 </r>
       <r>     6.9820    27.7605   263.5771 </r>
       <r>     7.0353    61.3662   266.8489 </r>
       <r>     7.0886    20.6086   267.9476 </r>
       <r>     7.1419     1.1532   268.0091 </r>
       <r>     7.1952     5.0177   268.2767 </r>
       <r>     7.2486    19.6720   269.3255 </r>
       <r>     7.3019    11.6406   269.9461 </r>
       <r>     7.3552     1.0068   269.9998 </r>
       <r>     7.4085     1.1434   270.0608 </r>
       <r>     7.4618    22.1960   271.2442 </r>
       <r>     7.5151    61.8122   274.5397 </r>
       <r>     7.5685    34.2367   276.3651 </r>
       <r>     7.6218    52.3571   279.1566 </r>
       <r>     7.6751    46.9937   281.6621 </r>
       <r>     7.7284    16.5690   282.5455 </r>
       <r>     7.7817    80.9416   286.8610 </r>
       <r>     7.8350   108.1254   292.6258 </r>
       <r>     7.8883    24.8879   293.9527 </r>
       <r>     7.9417     2.2700   294.0737 </r>
       <r>     7.9950    34.6694   295.9222 </r>
       <r>     8.0483   126.4782   302.6655 </r>
       <r>     8.1016    84.2520   307.1575 </r>
       <r>     8.1549    15.0299   307.9588 </r>
       <r>     8.2082     1.5629   308.0421 </r>
       <r>     8.2616    18.5702   309.0322 </r>
       <r>     8.3149    60.8287   312.2754 </r>
       <r>     8.3682    30.1888   313.8849 </r>
       <r>     8.4215     4.4739   314.1234 </r>
       <r>     8.4748    44.6512   316.5041 </r>
       <r>     8.5281   133.2925   323.6107 </r>
       <r>     8.5815    73.5426   327.5317 </r>
       <r>     8.6348     8.5773   327.9890 </r>
       <r>     8.6881     0.2058   328.0000 </r>
       <r>     8.7414     0.0008   328.0000 </r>
       <r>     8.7947     0.0000   328.0000 </r>
       <r>     8.8480     0.0000   328.0000 </r>
       <r>     8.9014     0.0000   328.0000 </r>
       <r>     8.9547     0.0000   328.0000 </r>
       <r>     9.0080     0.0000   328.0000 </r>
       <r>     9.0613     0.0000   328.0000 </r>
       <r>     9.1146     0.0000   328.0000 </r>
       <r>     9.1679     0.0000   328.0000 </r>
       <r>     9.2212     0.0000   328.0000 </r>
       <r>     9.2746     0.0000   328.0000 </r>
      </set>
     </set>
    </array>
   </total>
  </dos>
 </calculation>
 <structure name="finalpos" >
  <crystal>
   <varray name="basis" >
    <v>      10.93252578       0.00000000       0.00000000 </v>
    <v>       0.00000000      10.93252578       0.00000000 </v>
    <v>       0.00000000       0.00000000      10.93252578 </v>
   </varray>
   <i name="volume">   1306.65679237 </i>
   <varray name="rec_basis" >
    <v>       0.09147017       0.00000000       0.00000000 </v>
    <v>       0.00000000       0.09147017       0.00000000 </v>
    <v>       0.00000000       0.00000000       0.09147017 </v>
   </varray>
  </crystal>
  <varray name="positions" >
   <v>       0.44024411       0.43750000       0.43750000 </v>
   <v>       0.93750000       0.43750000       0.43750000 </v>
   <v>       0.43750000       0.93750000       0.43750000 </v>
   <v>       0.93750000       0.93750000       0.43750000 </v>
   <v>       0.43750000       0.43750000       0.93750000 </v>
   <v>       0.93750000       0.43750000       0.93750000 </v>
   <v>       0.43750000       0.93750000       0.93750000 </v>
   <v>       0.93555962       0.93555962       0.93750000 </v>
   <v>       0.43750000       0.18750000       0.18750000 </v>
   <v>       0.93750000       0.18750000       0.18750000 </v>
   <v>       0.43750000       0.68750000       0.18750000 </v>
   <v>       0.93750000       0.68750000       0.18750000 </v>
   <v>       0.43750000       0.18750000       0.68750000 </v>
   <v>       0.93750000       0.18750000       0.68750000 </v>
   <v>       0.43750000       0.68750000       0.68750000 </v>
   <v>       0.93750000       0.68750000       0.68750000 </v>
   <v>       0.18750000       0.43750000       0.18750000 </v>
   <v>       0.68750000       0.43750000       0.18750000 </v>
   <v>       0.18750000       0.93750000       0.18750000 </v>
   <v>       0.68750000       0.93750000       0.18750000 </v>
   <v>       0.18750000       0.43750000       0.68750000 </v>
   <v>       0.68750000       0.43750000       0.68750000 </v>
   <v>       0.18750000       0.93750000       0.68750000 </v>
   <v>       0.68750000       0.93750000       0.68750000 </v>
   <v>       0.18750000       0.18750000       0.43750000 </v>
   <v>       0.68750000       0.18750000       0.43750000 </v>
   <v>       0.18750000       0.68750000       0.43750000 </v>
   <v>       0.68750000       0.68750000       0.43750000 </v>
   <v>       0.18750000       0.18750000       0.93750000 </v>
   <v>       0.68750000       0.18750000       0.93750000 </v>
   <v>       0.18750000       0.68750000       0.93750000 </v>
   <v>       0.68750000       0.68750000       0.93750000 </v>
   <v>       0.06250000       0.06250000       0.06250000 </v>
   <v>       0.56250000       0.06250000       0.06250000 </v>
   <v>       0.06250000       0.56250000       0.06250000 </v>
   <v>       0.56250000       0.56250000       0.06250000 </v>
   <v>       0.06250000       0.06250000       0.56250000 </v>
   <v>       0.56250000       0.06250000       0.56250000 </v>
   <v>       0.06250000       0.56250000       0.56250000 </v>
   <v>       0.56250000       0.56250000       0.56250000 </v>
   <v>       0.06250000       0.31250000       0.31250000 </v>
   <v>       0.56250000       0.31250000       0.31250000 </v>
   <v>       0.06250000       0.81250000       0.31250000 </v>
   <v>       0.56250000       0.81250000       0.31250000 </v>
   <v>       0.06250000       0.31250000       0.81250000 </v>
   <v>       0.56250000       0.31250000       0.81250000 </v>
   <v>       0.06250000       0.81250000       0.81250000 </v>
   <v>       0.56250000       0.81250000       0.81250000 </v>
   <v>       0.31250000       0.06250000       0.31250000 </v>
   <v>       0.81250000       0.06250000       0.31250000 </v>
   <v>       0.31250000       0.56250000       0.31250000 </v>
   <v>       0.81250000       0.56250000       0.31250000 </v>
   <v>       0.31250000       0.06250000       0.81250000 </v>
   <v>       0.81250000       0.06250000       0.81250000 </v>
   <v>       0.31250000       0.56250000       0.81250000 </v>
   <v>       0.81250000       0.56250000       0.81250000 </v>
   <v>       0.31250000       0.31250000       0.06250000 </v>
   <v>       0.81250000       0.31250000       0.06250000 </v>
   <v>       0.31250000       0.81250000       0.06250000 </v>
   <v>       0.81250000       0.81250000       0.06250000 </v>
   <v>       0.31250000       0.31250000       0.56250000 </v>
   <v>       0.81250000       0.31250000       0.56250000 </v>
   <v>       0.31250000       0.81250000       0.56250000 </v>
   <v>       0.81250000       0.81250000       0.56250000 </v>
  </varray>
 </structure>
</modeling>
