
     Program PWSCF v.5.3.0 (svn rev. 11974) starts on  3Feb2016 at 13:43:57 

     This program is part of the open-source Quantum ESPRESSO suite
     for quantum simulation of materials; please cite
         "P. Giannozzi et al., J. Phys.:Condens. Matter 21 395502 (2009);
          URL http://www.quantum-espresso.org", 
     in publications or presentations arising from this work. More details at
     http://www.quantum-espresso.org/quote

     Parallel version (MPI), running on    16 processors
     R & G space division:  proc/nbgrp/npool/nimage =      16
     Reading input from Si.in

     Current dimensions of program PWSCF are:
     Max number of different atomic species (ntypx) = 10
     Max number of k-points (npk) =  40000
     Max angular momentum in pseudopotentials (lmaxx) =  3
               file Si.pbe-n-kjpaw_psl.0.1.UPF: wavefunction(s)  3S renormalized

     Subspace diagonalization in iterative solution of the eigenvalue problem:
     one sub-group per k-point group (pool) will be used
     scalapack distributed-memory algorithm (size of sub-group:  2*  2 procs)

 
     Parallelization info
     --------------------
     sticks:   dense  smooth     PW     G-vecs:    dense   smooth      PW
     Min         424     424    109                26332    26332    3467
     Max         425     425    110                26336    26336    3472
     Sum        6785    6785   1757               421349   421349   55515
 


     bravais-lattice index     =            0
     lattice parameter (alat)  =      20.6591  a.u.
     unit-cell volume          =    8817.2783 (a.u.)^3
     number of atoms/cell      =           64
     number of atomic types    =            1
     number of electrons       =       256.00
     number of Kohn-Sham states=          154
     kinetic-energy cutoff     =      50.0000  Ry
     charge density cutoff     =     200.0000  Ry
     convergence threshold     =      1.0E-09
     mixing beta               =       0.7000
     number of iterations used =            8  plain     mixing
     Exchange-correlation      =  SLA  PW   PBX  PBC ( 1  4  3  4 0 0)

     celldm(1)=  20.659106  celldm(2)=   0.000000  celldm(3)=   0.000000
     celldm(4)=   0.000000  celldm(5)=   0.000000  celldm(6)=   0.000000

     crystal axes: (cart. coord. in units of alat)
               a(1) = (   1.000000   0.000000   0.000000 )  
               a(2) = (   0.000000   1.000000   0.000000 )  
               a(3) = (   0.000000   0.000000   1.000000 )  

     reciprocal axes: (cart. coord. in units 2 pi/alat)
               b(1) = (  1.000000  0.000000  0.000000 )  
               b(2) = (  0.000000  1.000000  0.000000 )  
               b(3) = (  0.000000  0.000000  1.000000 )  


     PseudoPot. # 1 for Si read from file:
     /home/togo/espresso/pseudo/Si.pbe-n-kjpaw_psl.0.1.UPF
     MD5 check sum: b9d333a40e496bef61db012f150758bf
     Pseudo is Projector augmented-wave + core cor, Zval =  4.0
     Generated using "atomic" code by A. Dal Corso  v.5.0.2 svn rev. 9415
     Shape of augmentation charge: PSQ
     Using radial grid of 1141 points,  4 beta functions with: 
                l(1) =   0
                l(2) =   0
                l(3) =   1
                l(4) =   1
     Q(r) pseudized with 0 coefficients 


     atomic species   valence    mass     pseudopotential
        Si             4.00    28.08550     Si( 1.00)

      2 Sym. Ops., with inversion, found ( 1 have fractional translation)



   Cartesian axes

     site n.     atom                  positions (alat units)
         1           Si  tau(   1) = (   0.4404043   0.4375000   0.4375000  )
         2           Si  tau(   2) = (   0.9375000   0.4375000   0.4375000  )
         3           Si  tau(   3) = (   0.4375000   0.9375000   0.4375000  )
         4           Si  tau(   4) = (   0.9375000   0.9375000   0.4375000  )
         5           Si  tau(   5) = (   0.4375000   0.4375000   0.9375000  )
         6           Si  tau(   6) = (   0.9375000   0.4375000   0.9375000  )
         7           Si  tau(   7) = (   0.4375000   0.9375000   0.9375000  )
         8           Si  tau(   8) = (   0.9375000   0.9375000   0.9375000  )
         9           Si  tau(   9) = (   0.4375000   0.1875000   0.1875000  )
        10           Si  tau(  10) = (   0.9375000   0.1875000   0.1875000  )
        11           Si  tau(  11) = (   0.4375000   0.6875000   0.1875000  )
        12           Si  tau(  12) = (   0.9375000   0.6875000   0.1875000  )
        13           Si  tau(  13) = (   0.4375000   0.1875000   0.6875000  )
        14           Si  tau(  14) = (   0.9375000   0.1875000   0.6875000  )
        15           Si  tau(  15) = (   0.4375000   0.6875000   0.6875000  )
        16           Si  tau(  16) = (   0.9375000   0.6875000   0.6875000  )
        17           Si  tau(  17) = (   0.1875000   0.4375000   0.1875000  )
        18           Si  tau(  18) = (   0.6875000   0.4375000   0.1875000  )
        19           Si  tau(  19) = (   0.1875000   0.9375000   0.1875000  )
        20           Si  tau(  20) = (   0.6875000   0.9375000   0.1875000  )
        21           Si  tau(  21) = (   0.1875000   0.4375000   0.6875000  )
        22           Si  tau(  22) = (   0.6875000   0.4375000   0.6875000  )
        23           Si  tau(  23) = (   0.1875000   0.9375000   0.6875000  )
        24           Si  tau(  24) = (   0.6875000   0.9375000   0.6875000  )
        25           Si  tau(  25) = (   0.1875000   0.1875000   0.4375000  )
        26           Si  tau(  26) = (   0.6875000   0.1875000   0.4375000  )
        27           Si  tau(  27) = (   0.1875000   0.6875000   0.4375000  )
        28           Si  tau(  28) = (   0.6875000   0.6875000   0.4375000  )
        29           Si  tau(  29) = (   0.1875000   0.1875000   0.9375000  )
        30           Si  tau(  30) = (   0.6875000   0.1875000   0.9375000  )
        31           Si  tau(  31) = (   0.1875000   0.6875000   0.9375000  )
        32           Si  tau(  32) = (   0.6875000   0.6875000   0.9375000  )
        33           Si  tau(  33) = (   0.0625000   0.0625000   0.0625000  )
        34           Si  tau(  34) = (   0.5625000   0.0625000   0.0625000  )
        35           Si  tau(  35) = (   0.0625000   0.5625000   0.0625000  )
        36           Si  tau(  36) = (   0.5595957   0.5625000   0.0625000  )
        37           Si  tau(  37) = (   0.0625000   0.0625000   0.5625000  )
        38           Si  tau(  38) = (   0.5625000   0.0625000   0.5625000  )
        39           Si  tau(  39) = (   0.0625000   0.5625000   0.5625000  )
        40           Si  tau(  40) = (   0.5625000   0.5625000   0.5625000  )
        41           Si  tau(  41) = (   0.0625000   0.3125000   0.3125000  )
        42           Si  tau(  42) = (   0.5625000   0.3125000   0.3125000  )
        43           Si  tau(  43) = (   0.0625000   0.8125000   0.3125000  )
        44           Si  tau(  44) = (   0.5625000   0.8125000   0.3125000  )
        45           Si  tau(  45) = (   0.0625000   0.3125000   0.8125000  )
        46           Si  tau(  46) = (   0.5625000   0.3125000   0.8125000  )
        47           Si  tau(  47) = (   0.0625000   0.8125000   0.8125000  )
        48           Si  tau(  48) = (   0.5625000   0.8125000   0.8125000  )
        49           Si  tau(  49) = (   0.3125000   0.0625000   0.3125000  )
        50           Si  tau(  50) = (   0.8125000   0.0625000   0.3125000  )
        51           Si  tau(  51) = (   0.3125000   0.5625000   0.3125000  )
        52           Si  tau(  52) = (   0.8125000   0.5625000   0.3125000  )
        53           Si  tau(  53) = (   0.3125000   0.0625000   0.8125000  )
        54           Si  tau(  54) = (   0.8125000   0.0625000   0.8125000  )
        55           Si  tau(  55) = (   0.3125000   0.5625000   0.8125000  )
        56           Si  tau(  56) = (   0.8125000   0.5625000   0.8125000  )
        57           Si  tau(  57) = (   0.3125000   0.3125000   0.0625000  )
        58           Si  tau(  58) = (   0.8125000   0.3125000   0.0625000  )
        59           Si  tau(  59) = (   0.3125000   0.8125000   0.0625000  )
        60           Si  tau(  60) = (   0.8125000   0.8125000   0.0625000  )
        61           Si  tau(  61) = (   0.3125000   0.3125000   0.5625000  )
        62           Si  tau(  62) = (   0.8125000   0.3125000   0.5625000  )
        63           Si  tau(  63) = (   0.3125000   0.8125000   0.5625000  )
        64           Si  tau(  64) = (   0.8125000   0.8125000   0.5625000  )

     number of k points=     4  gaussian smearing, width (Ry)=  0.0100
                       cart. coord. in units 2pi/alat
        k(    1) = (   0.2500000   0.2500000   0.2500000), wk =   0.5000000
        k(    2) = (  -0.2500000   0.2500000  -0.2500000), wk =   0.5000000
        k(    3) = (   0.2500000  -0.2500000  -0.2500000), wk =   0.5000000
        k(    4) = (   0.2500000   0.2500000  -0.2500000), wk =   0.5000000

     Dense  grid:   421349 G-vectors     FFT dimensions: (  96,  96,  96)

     Largest allocated arrays     est. size (Mb)     dimensions
        Kohn-Sham Wavefunctions         7.72 Mb     (    3285,  154)
        NL pseudopotentials            25.66 Mb     (    3285,  512)
        Each V/rho on FFT grid          0.84 Mb     (   55296)
        Each G-vector array             0.20 Mb     (   26336)
        G-vector shells                 0.01 Mb     (    1719)
     Largest temporary arrays     est. size (Mb)     dimensions
        Auxiliary wavefunctions        30.88 Mb     (    3285,  616)
        Each subspace H/S matrix        1.45 Mb     (     308,  308)
        Each <psi_i|beta_j> matrix      1.20 Mb     (     512,  154)
        Arrays for rho mixing           6.75 Mb     (   55296,    8)

     Check: negative/imaginary core charge=   -0.000001    0.000000

     Initial potential from superposition of free atoms

     starting charge  255.96421, renormalised to  256.00000
     Starting wfc are  256 randomized atomic wfcs
     Checking if some PAW data can be deallocated... 

     total cpu time spent up to now is        9.7 secs

     per-process dynamical memory:   117.5 Mb

     Self-consistent Calculation

     iteration #  1     ecut=    50.00 Ry     beta=0.70
     Davidson diagonalization with overlap
     ethr =  1.00E-02,  avg # of iterations =  3.0

     Threshold (ethr) on eigenvalues was too large:
     Diagonalizing with lowered threshold

     Davidson diagonalization with overlap
     ethr =  7.00E-04,  avg # of iterations =  1.0

     total cpu time spent up to now is       50.5 secs

     total energy              =   -2990.45693752 Ry
     Harris-Foulkes estimate   =   -2990.87647632 Ry
     estimated scf accuracy    <       1.77332428 Ry

     iteration #  2     ecut=    50.00 Ry     beta=0.70
     Davidson diagonalization with overlap
     ethr =  6.93E-04,  avg # of iterations =  1.0

     total cpu time spent up to now is       65.4 secs

     total energy              =   -2990.52361622 Ry
     Harris-Foulkes estimate   =   -2990.52745953 Ry
     estimated scf accuracy    <       0.07629943 Ry

     iteration #  3     ecut=    50.00 Ry     beta=0.70
     Davidson diagonalization with overlap
     ethr =  2.98E-05,  avg # of iterations = 10.5

     total cpu time spent up to now is      108.9 secs

     total energy              =   -2990.53063482 Ry
     Harris-Foulkes estimate   =   -2990.53136268 Ry
     estimated scf accuracy    <       0.00189741 Ry

     iteration #  4     ecut=    50.00 Ry     beta=0.70
     Davidson diagonalization with overlap
     ethr =  7.41E-07,  avg # of iterations =  6.5

     total cpu time spent up to now is      149.9 secs

     total energy              =   -2990.53056884 Ry
     Harris-Foulkes estimate   =   -2990.53254165 Ry
     estimated scf accuracy    <       0.00608038 Ry

     iteration #  5     ecut=    50.00 Ry     beta=0.70
     Davidson diagonalization with overlap
     ethr =  7.41E-07,  avg # of iterations =  4.5

     total cpu time spent up to now is      174.8 secs

     total energy              =   -2990.53148879 Ry
     Harris-Foulkes estimate   =   -2990.53160030 Ry
     estimated scf accuracy    <       0.00031981 Ry

     iteration #  6     ecut=    50.00 Ry     beta=0.70
     Davidson diagonalization with overlap
     ethr =  1.25E-07,  avg # of iterations =  2.0

     total cpu time spent up to now is      194.7 secs

     total energy              =   -2990.53154648 Ry
     Harris-Foulkes estimate   =   -2990.53156312 Ry
     estimated scf accuracy    <       0.00004873 Ry

     iteration #  7     ecut=    50.00 Ry     beta=0.70
     Davidson diagonalization with overlap
     ethr =  1.90E-08,  avg # of iterations =  2.8

     total cpu time spent up to now is      213.7 secs

     total energy              =   -2990.53155512 Ry
     Harris-Foulkes estimate   =   -2990.53155669 Ry
     estimated scf accuracy    <       0.00000366 Ry

     iteration #  8     ecut=    50.00 Ry     beta=0.70
     Davidson diagonalization with overlap
     ethr =  1.43E-09,  avg # of iterations =  3.0

     total cpu time spent up to now is      236.4 secs

     total energy              =   -2990.53155622 Ry
     Harris-Foulkes estimate   =   -2990.53155642 Ry
     estimated scf accuracy    <       0.00000045 Ry

     iteration #  9     ecut=    50.00 Ry     beta=0.70
     Davidson diagonalization with overlap
     ethr =  1.77E-10,  avg # of iterations =  3.0

     total cpu time spent up to now is      256.4 secs

     total energy              =   -2990.53155623 Ry
     Harris-Foulkes estimate   =   -2990.53155633 Ry
     estimated scf accuracy    <       0.00000018 Ry

     iteration # 10     ecut=    50.00 Ry     beta=0.70
     Davidson diagonalization with overlap
     ethr =  6.89E-11,  avg # of iterations =  2.5

     total cpu time spent up to now is      274.2 secs

     total energy              =   -2990.53155621 Ry
     Harris-Foulkes estimate   =   -2990.53155627 Ry
     estimated scf accuracy    <       0.00000005 Ry

     iteration # 11     ecut=    50.00 Ry     beta=0.70
     Davidson diagonalization with overlap
     ethr =  2.07E-11,  avg # of iterations =  2.0

     total cpu time spent up to now is      292.1 secs

     total energy              =   -2990.53155622 Ry
     Harris-Foulkes estimate   =   -2990.53155622 Ry
     estimated scf accuracy    <          1.3E-09 Ry

     iteration # 12     ecut=    50.00 Ry     beta=0.70
     Davidson diagonalization with overlap
     ethr =  5.27E-13,  avg # of iterations =  3.0

     total cpu time spent up to now is      325.4 secs

     End of self-consistent calculation

          k = 0.2500 0.2500 0.2500 ( 52563 PWs)   bands (ev):

    -5.6250  -5.0996  -5.0965  -5.0932  -4.5996  -4.5971  -4.5935  -4.1620
    -4.0665  -4.0629  -4.0597  -3.6578  -3.6517  -3.6473  -3.6452  -3.6420
    -3.6413  -3.4615  -3.4529  -3.4519  -2.9604  -2.9572  -2.9525  -2.5942
    -2.5884  -2.5863  -2.4306  -2.4249  -2.4212  -2.4188  -2.4163  -2.4145
    -0.8851  -0.8829  -0.8782  -0.8751  -0.8746  -0.8709  -0.7812  -0.7809
    -0.7767  -0.6667  -0.6605  -0.6541  -0.5859  -0.5795  -0.5758   0.1225
     0.2060   0.2068   0.2106   0.2135   0.2162   0.2206   1.0808   1.0820
     1.0860   1.4129   1.4209   1.4213   2.0231   2.0280   2.0292   2.0302
     2.0324   2.0328   2.0858   2.0905   2.0915   2.6355   2.6390   2.6400
     2.7397   2.7419   2.7429   2.7435   2.7484   2.7508   2.7939   2.8007
     2.8013   3.1025   3.1035   3.1073   3.1080   3.1099   3.1133   3.3704
     3.3724   3.3758   3.3821   3.3898   3.3907   3.7308   3.7313   3.7348
     3.7488   3.7548   3.7572   3.8386   3.8395   3.8441   4.1005   4.1112
     4.1125   4.1138   4.1150   4.1162   4.1527   4.1536   4.1589   4.4090
     4.4707   4.4714   4.4779   4.7138   4.7149   4.7206   4.7709   4.7736
     4.7778   4.9325   4.9423   5.2429   5.2443   5.2519   5.7207   5.7322
     6.9326   6.9400   6.9412   7.3748   7.3763   7.3814   7.6002   7.8610
     7.8617   7.8678   7.9872   7.9878   7.9957   8.1496   8.1509   8.1550
     8.1658   8.1688   8.1751   8.3964   8.3970   8.3980   8.4022   8.4026
     8.4071   8.4508

          k =-0.2500 0.2500-0.2500 ( 52563 PWs)   bands (ev):

    -5.6251  -5.0997  -5.0972  -5.0917  -4.6004  -4.5977  -4.5923  -4.1642
    -4.0675  -4.0646  -4.0591  -3.6525  -3.6510  -3.6483  -3.6471  -3.6423
    -3.6382  -3.4575  -3.4527  -3.4521  -2.9656  -2.9604  -2.9553  -2.5927
    -2.5885  -2.5855  -2.4258  -2.4247  -2.4226  -2.4217  -2.4172  -2.4108
    -0.8851  -0.8828  -0.8811  -0.8797  -0.8762  -0.8677  -0.7851  -0.7820
    -0.7763  -0.6676  -0.6672  -0.6575  -0.5777  -0.5705  -0.5671   0.1300
     0.2025   0.2044   0.2069   0.2089   0.2128   0.2201   1.0835   1.0859
     1.0940   1.4148   1.4161   1.4239   2.0247   2.0268   2.0279   2.0292
     2.0322   2.0333   2.0849   2.0858   2.0905   2.6399   2.6413   2.6449
     2.7376   2.7376   2.7417   2.7435   2.7445   2.7463   2.7903   2.7933
     2.7989   3.1024   3.1040   3.1073   3.1077   3.1094   3.1156   3.3670
     3.3720   3.3722   3.3822   3.3830   3.3902   3.7340   3.7349   3.7405
     3.7573   3.7597   3.7625   3.8347   3.8388   3.8416   4.1119   4.1134
     4.1149   4.1177   4.1206   4.1231   4.1480   4.1527   4.1566   4.4171
     4.4648   4.4704   4.4709   4.7084   4.7134   4.7155   4.7791   4.7828
     4.7895   4.9298   4.9402   5.2356   5.2416   5.2454   5.7159   5.7272
     6.9316   6.9359   6.9360   7.3729   7.3742   7.3809   7.5972   7.8561
     7.8595   7.8649   7.9908   7.9916   7.9969   8.1464   8.1525   8.1539
     8.1653   8.1693   8.1704   8.3976   8.4004   8.4025   8.4054   8.4070
     8.4122   8.4458

          k = 0.2500-0.2500-0.2500 ( 52563 PWs)   bands (ev):

    -5.6250  -5.0996  -5.0965  -5.0932  -4.5996  -4.5971  -4.5934  -4.1622
    -4.0665  -4.0629  -4.0595  -3.6574  -3.6508  -3.6463  -3.6440  -3.6436
    -3.6433  -3.4621  -3.4523  -3.4519  -2.9604  -2.9573  -2.9525  -2.5972
    -2.5863  -2.5854  -2.4302  -2.4242  -2.4201  -2.4181  -2.4170  -2.4166
    -0.8861  -0.8834  -0.8769  -0.8765  -0.8721  -0.8720  -0.7866  -0.7767
    -0.7751  -0.6675  -0.6605  -0.6536  -0.5859  -0.5795  -0.5758   0.1226
     0.2048   0.2048   0.2114   0.2130   0.2181   0.2213   1.0808   1.0820
     1.0860   1.4129   1.4209   1.4213   2.0234   2.0276   2.0289   2.0295
     2.0322   2.0336   2.0859   2.0908   2.0918   2.6346   2.6398   2.6399
     2.7388   2.7406   2.7420   2.7450   2.7490   2.7504   2.7939   2.8013
     2.8020   3.1026   3.1034   3.1069   3.1084   3.1097   3.1135   3.3704
     3.3735   3.3749   3.3821   3.3899   3.3906   3.7306   3.7321   3.7348
     3.7472   3.7558   3.7572   3.8387   3.8393   3.8439   4.1005   4.1106
     4.1116   4.1142   4.1159   4.1165   4.1527   4.1535   4.1590   4.4090
     4.4707   4.4733   4.4758   4.7139   4.7148   4.7206   4.7709   4.7737
     4.7778   4.9325   4.9424   5.2429   5.2443   5.2519   5.7207   5.7321
     6.9326   6.9400   6.9412   7.3749   7.3762   7.3814   7.6002   7.8609
     7.8617   7.8679   7.9862   7.9877   7.9968   8.1495   8.1511   8.1544
     8.1658   8.1712   8.1732   8.3948   8.3961   8.3992   8.4020   8.4041
     8.4072   8.4504

          k = 0.2500 0.2500-0.2500 ( 52563 PWs)   bands (ev):

    -5.6251  -5.0988  -5.0962  -5.0937  -4.5994  -4.5965  -4.5945  -4.1642
    -4.0661  -4.0636  -4.0615  -3.6519  -3.6500  -3.6476  -3.6471  -3.6437
    -3.6391  -3.4574  -3.4528  -3.4522  -2.9631  -2.9597  -2.9584  -2.5926
    -2.5884  -2.5855  -2.4253  -2.4245  -2.4215  -2.4207  -2.4192  -2.4117
    -0.8865  -0.8839  -0.8787  -0.8780  -0.8778  -0.8680  -0.7849  -0.7822
    -0.7761  -0.6676  -0.6672  -0.6576  -0.5770  -0.5754  -0.5628   0.1300
     0.2005   0.2035   0.2093   0.2106   0.2114   0.2202   1.0835   1.0860
     1.0939   1.4147   1.4166   1.4235   2.0245   2.0266   2.0277   2.0295
     2.0324   2.0334   2.0842   2.0857   2.0915   2.6400   2.6413   2.6449
     2.7368   2.7385   2.7415   2.7426   2.7452   2.7463   2.7905   2.7933
     2.7990   3.1027   3.1047   3.1064   3.1076   3.1092   3.1156   3.3675
     3.3717   3.3721   3.3825   3.3829   3.3898   3.7340   3.7356   3.7393
     3.7568   3.7599   3.7632   3.8346   3.8388   3.8417   4.1127   4.1135
     4.1138   4.1169   4.1215   4.1233   4.1476   4.1529   4.1566   4.4171
     4.4648   4.4704   4.4709   4.7082   4.7136   4.7155   4.7793   4.7813
     4.7910   4.9298   4.9401   5.2349   5.2424   5.2452   5.7159   5.7272
     6.9316   6.9360   6.9360   7.3701   7.3773   7.3806   7.5972   7.8549
     7.8608   7.8648   7.9906   7.9918   7.9970   8.1479   8.1506   8.1537
     8.1650   8.1701   8.1706   8.3980   8.4014   8.4025   8.4045   8.4059
     8.4126   8.4460

     the Fermi energy is     6.3278 ev

!    total energy              =   -2990.53155623 Ry
     Harris-Foulkes estimate   =   -2990.53155622 Ry
     estimated scf accuracy    <          7.0E-10 Ry

     total all-electron energy =    -37124.667109 Ry

     The total energy is the sum of the following terms:

     one-electron contribution =     178.60675882 Ry
     hartree contribution      =      35.70133102 Ry
     xc contribution           =    -391.44199600 Ry
     ewald contribution        =    -534.00634458 Ry
     one-center paw contrib.   =   -2279.39130549 Ry
     smearing contrib. (-TS)   =       0.00000000 Ry

     convergence has been achieved in  12 iterations

     Forces acting on atoms (Ry/au):

     atom    1 type  1   force =    -0.01582757   -0.00005171   -0.00003977
     atom    2 type  1   force =    -0.00000360   -0.00002644   -0.00002479
     atom    3 type  1   force =    -0.00020187   -0.00002794   -0.00002743
     atom    4 type  1   force =     0.00001371   -0.00003093   -0.00003160
     atom    5 type  1   force =    -0.00387429   -0.00270557   -0.00270436
     atom    6 type  1   force =     0.00000446   -0.00003826   -0.00003870
     atom    7 type  1   force =    -0.00041471   -0.00003885   -0.00005055
     atom    8 type  1   force =    -0.00000125   -0.00002557   -0.00002702
     atom    9 type  1   force =    -0.00046780    0.00015411    0.00016428
     atom   10 type  1   force =    -0.00002584    0.00003391    0.00003613
     atom   11 type  1   force =    -0.00445304    0.00281417    0.00259609
     atom   12 type  1   force =     0.00001264    0.00004831    0.00002860
     atom   13 type  1   force =    -0.00078049   -0.00008201    0.00013726
     atom   14 type  1   force =     0.00002185    0.00002168    0.00004124
     atom   15 type  1   force =    -0.00046804   -0.00006424   -0.00007606
     atom   16 type  1   force =    -0.00002511    0.00001760    0.00001678
     atom   17 type  1   force =     0.00024460   -0.00007216    0.00018914
     atom   18 type  1   force =    -0.00357405    0.00236669   -0.00271294
     atom   19 type  1   force =     0.00001363    0.00001822   -0.00010602
     atom   20 type  1   force =     0.00010275    0.00002709    0.00002452
     atom   21 type  1   force =     0.00020260    0.00013854   -0.00025510
     atom   22 type  1   force =     0.00029708    0.00016534    0.00019593
     atom   23 type  1   force =     0.00006386    0.00003961    0.00004724
     atom   24 type  1   force =    -0.00020931    0.00003771   -0.00010346
     atom   25 type  1   force =     0.00025304    0.00019666   -0.00007901
     atom   26 type  1   force =    -0.00001433   -0.00025981   -0.00008572
     atom   27 type  1   force =     0.00020337   -0.00025666    0.00013777
     atom   28 type  1   force =     0.00029655    0.00018033    0.00015031
     atom   29 type  1   force =     0.00001382   -0.00010476    0.00001959
     atom   30 type  1   force =     0.00010239    0.00003960    0.00004178
     atom   31 type  1   force =     0.00005431    0.00003982    0.00004660
     atom   32 type  1   force =    -0.00376797   -0.00255836    0.00249074
     atom   33 type  1   force =    -0.00001371    0.00003093    0.00003160
     atom   34 type  1   force =     0.00020187    0.00002794    0.00002743
     atom   35 type  1   force =     0.00000360    0.00002644    0.00002479
     atom   36 type  1   force =     0.01582757    0.00005171    0.00003977
     atom   37 type  1   force =     0.00000125    0.00002557    0.00002702
     atom   38 type  1   force =     0.00041471    0.00003885    0.00005055
     atom   39 type  1   force =    -0.00000446    0.00003826    0.00003870
     atom   40 type  1   force =     0.00387429    0.00270557    0.00270436
     atom   41 type  1   force =    -0.00001264   -0.00004831   -0.00002860
     atom   42 type  1   force =     0.00445304   -0.00281417   -0.00259609
     atom   43 type  1   force =     0.00002584   -0.00003391   -0.00003613
     atom   44 type  1   force =     0.00046780   -0.00015411   -0.00016428
     atom   45 type  1   force =     0.00002511   -0.00001760   -0.00001678
     atom   46 type  1   force =     0.00046804    0.00006424    0.00007606
     atom   47 type  1   force =    -0.00002185   -0.00002168   -0.00004124
     atom   48 type  1   force =     0.00078049    0.00008201   -0.00013726
     atom   49 type  1   force =    -0.00010275   -0.00002709   -0.00002452
     atom   50 type  1   force =    -0.00001363   -0.00001822    0.00010602
     atom   51 type  1   force =     0.00357405   -0.00236669    0.00271294
     atom   52 type  1   force =    -0.00024460    0.00007216   -0.00018914
     atom   53 type  1   force =     0.00020931   -0.00003771    0.00010346
     atom   54 type  1   force =    -0.00006386   -0.00003961   -0.00004724
     atom   55 type  1   force =    -0.00029708   -0.00016534   -0.00019593
     atom   56 type  1   force =    -0.00020260   -0.00013854    0.00025510
     atom   57 type  1   force =    -0.00029655   -0.00018033   -0.00015031
     atom   58 type  1   force =    -0.00020337    0.00025666   -0.00013777
     atom   59 type  1   force =     0.00001433    0.00025981    0.00008572
     atom   60 type  1   force =    -0.00025304   -0.00019666    0.00007901
     atom   61 type  1   force =     0.00376797    0.00255836   -0.00249074
     atom   62 type  1   force =    -0.00005431   -0.00003982   -0.00004660
     atom   63 type  1   force =    -0.00010239   -0.00003960   -0.00004178
     atom   64 type  1   force =    -0.00001382    0.00010476   -0.00001959

     Total force =     0.027190     Total SCF correction =     0.000041

     Writing output data file pwscf.save
 
     init_run     :      9.23s CPU      9.40s WALL (       1 calls)
     electrons    :    297.65s CPU    316.28s WALL (       1 calls)
     forces       :      4.55s CPU     10.40s WALL (       1 calls)

     Called by init_run:
     wfcinit      :      8.57s CPU      8.69s WALL (       1 calls)
     potinit      :      0.23s CPU      0.24s WALL (       1 calls)

     Called by electrons:
     c_bands      :    267.93s CPU    281.51s WALL (      13 calls)
     sum_band     :     25.24s CPU     29.73s WALL (      13 calls)
     v_of_rho     :      0.73s CPU      0.74s WALL (      13 calls)
     newd         :      1.38s CPU      1.44s WALL (      13 calls)
     PAW_pot      :      2.16s CPU      2.17s WALL (      13 calls)
     mix_rho      :      0.41s CPU      0.41s WALL (      13 calls)

     Called by c_bands:
     init_us_2    :      4.99s CPU      5.08s WALL (     112 calls)
     cegterg      :    246.99s CPU    253.32s WALL (      52 calls)

     Called by sum_band:
     sum_band:bec :      0.04s CPU      0.04s WALL (      52 calls)
     addusdens    :      1.47s CPU      1.65s WALL (      13 calls)

     Called by *egterg:
     h_psi        :    115.24s CPU    115.49s WALL (     235 calls)
     s_psi        :     29.33s CPU     29.37s WALL (     235 calls)
     g_psi        :      1.10s CPU      1.10s WALL (     179 calls)
     cdiaghg      :     34.98s CPU     35.01s WALL (     227 calls)

     Called by h_psi:
     add_vuspsi   :     30.23s CPU     30.27s WALL (     235 calls)

     General routines
     calbec       :     46.21s CPU     46.29s WALL (     303 calls)
     fft          :      0.42s CPU      0.44s WALL (     182 calls)
     fftw         :     54.43s CPU     54.75s WALL (   53202 calls)
     davcio       :      0.00s CPU      0.01s WALL (       4 calls)
 
     Parallel routines
     fft_scatter  :     16.24s CPU     15.71s WALL (   53384 calls)
 
     PWSCF        :  5m11.70s CPU     6m 1.46s WALL

 
   This run was terminated on:  13:49:59   3Feb2016            

=------------------------------------------------------------------------------=
   JOB DONE.
=------------------------------------------------------------------------------=
