<?xml version="1.0" encoding="ISO-8859-1"?>
<modeling>
 <generator>
  <i name="program" type="string">vasp </i>
  <i name="version" type="string">5.4.1  </i>
  <i name="subversion" type="string">05Feb16 (build Mar 26 2016 11:58:25) complex                          parallel </i>
  <i name="platform" type="string">IFC91_ompi </i>
  <i name="date" type="string">2017 03 12 </i>
  <i name="time" type="string">12:13:57 </i>
 </generator>
 <incar>
  <i type="string" name="PREC">accurate</i>
  <i type="int" name="IALGO">    38</i>
  <i type="logical" name="ADDGRID"> T  </i>
  <i type="int" name="NELMIN">     5</i>
  <i type="int" name="IBRION">    -1</i>
  <i name="EDIFF">      0.00000001</i>
  <i name="ENCUT">    300.00000000</i>
  <i type="logical" name="LREAL"> F  </i>
  <i type="int" name="ISMEAR">     0</i>
  <i name="SIGMA">      0.05000000</i>
  <i type="logical" name="LWAVE"> F  </i>
  <i type="logical" name="LCHARG"> F  </i>
  <v type="int" name="KPOINT_BSE">    -1     0     0     0</v>
 </incar>
 <kpoints>
  <generation param="Monkhorst-Pack">
   <v type="int" name="divisions">       2        2        2 </v>
   <v name="usershift">      0.00000000       0.00000000       0.00000000 </v>
   <v name="genvec1">      0.50000000       0.00000000       0.00000000 </v>
   <v name="genvec2">      0.00000000       0.50000000       0.00000000 </v>
   <v name="genvec3">      0.00000000       0.00000000       0.50000000 </v>
   <v name="shift">      0.50000000       0.50000000       0.50000000 </v>
  </generation>
  <varray name="kpointlist" >
   <v>       0.25000000       0.25000000       0.25000000 </v>
   <v>      -0.25000000       0.25000000       0.25000000 </v>
   <v>       0.25000000      -0.25000000       0.25000000 </v>
   <v>      -0.25000000      -0.25000000       0.25000000 </v>
  </varray>
  <varray name="weights" >
   <v>       0.25000000 </v>
   <v>       0.25000000 </v>
   <v>       0.25000000 </v>
   <v>       0.25000000 </v>
  </varray>
 </kpoints>
 <parameters>
  <separator name="general" >
   <i type="string" name="SYSTEM">unknown system</i>
   <i type="logical" name="LCOMPAT"> F  </i>
  </separator>
  <separator name="electronic" >
   <i type="string" name="PREC">accura</i>
   <i name="ENMAX">    300.00000000</i>
   <i name="ENAUG">    322.06900000</i>
   <i name="EDIFF">      0.00000001</i>
   <i type="int" name="IALGO">    38</i>
   <i type="int" name="IWAVPR">    10</i>
   <i type="int" name="NBANDS">   164</i>
   <i name="NELECT">    256.00000000</i>
   <i type="int" name="TURBO">     0</i>
   <i type="int" name="IRESTART">     0</i>
   <i type="int" name="NREBOOT">     0</i>
   <i type="int" name="NMIN">     0</i>
   <i name="EREF">      0.00000000</i>
   <separator name="electronic smearing" >
    <i type="int" name="ISMEAR">     0</i>
    <i name="SIGMA">      0.05000000</i>
    <i name="KSPACING">      0.50000000</i>
    <i type="logical" name="KGAMMA"> T  </i>
   </separator>
   <separator name="electronic projectors" >
    <i type="logical" name="LREAL"> F  </i>
    <v name="ROPT">      0.00000000</v>
    <i type="int" name="LMAXPAW">  -100</i>
    <i type="int" name="LMAXMIX">     2</i>
    <i type="logical" name="NLSPLINE"> F  </i>
   </separator>
   <separator name="electronic startup" >
    <i type="int" name="ISTART">     0</i>
    <i type="int" name="ICHARG">     2</i>
    <i type="int" name="INIWAV">     1</i>
   </separator>
   <separator name="electronic spin" >
    <i type="int" name="ISPIN">     1</i>
    <i type="logical" name="LNONCOLLINEAR"> F  </i>
    <v name="MAGMOM">      1.00000000      1.00000000      1.00000000      1.00000000      1.00000000      1.00000000      1.00000000      1.00000000      1.00000000      1.00000000      1.00000000      1.00000000      1.00000000      1.00000000      1.00000000      1.00000000      1.00000000      1.00000000      1.00000000      1.00000000
      1.00000000      1.00000000      1.00000000      1.00000000      1.00000000      1.00000000      1.00000000      1.00000000      1.00000000      1.00000000      1.00000000      1.00000000      1.00000000      1.00000000      1.00000000      1.00000000      1.00000000      1.00000000      1.00000000      1.00000000
      1.00000000      1.00000000      1.00000000      1.00000000      1.00000000      1.00000000      1.00000000      1.00000000      1.00000000      1.00000000      1.00000000      1.00000000      1.00000000      1.00000000      1.00000000      1.00000000      1.00000000      1.00000000      1.00000000      1.00000000
      1.00000000      1.00000000      1.00000000      1.00000000</v>
    <i name="NUPDOWN">     -1.00000000</i>
    <i type="logical" name="LSORBIT"> F  </i>
    <v name="SAXIS">      0.00000000      0.00000000      1.00000000</v>
    <i type="logical" name="LSPIRAL"> F  </i>
    <v name="QSPIRAL">      0.00000000      0.00000000      0.00000000</v>
    <i type="logical" name="LZEROZ"> F  </i>
   </separator>
   <separator name="electronic exchange-correlation" >
    <i type="logical" name="LASPH"> F  </i>
    <i type="logical" name="LMETAGGA"> F  </i>
   </separator>
   <separator name="electronic convergence" >
    <i type="int" name="NELM">    60</i>
    <i type="int" name="NELMDL">    -5</i>
    <i type="int" name="NELMIN">     5</i>
    <i name="ENINI">    300.00000000</i>
    <separator name="electronic convergence detail" >
     <i type="logical" name="LDIAG"> T  </i>
     <i type="logical" name="LSUBROT"> F  </i>
     <i name="WEIMIN">      0.00000000</i>
     <i name="EBREAK">      0.00000000</i>
     <i name="DEPER">      0.30000000</i>
     <i type="int" name="NRMM">     4</i>
     <i name="TIME">      0.40000000</i>
    </separator>
   </separator>
   <separator name="electronic mixer" >
    <i name="AMIX">      0.40000000</i>
    <i name="BMIX">      1.00000000</i>
    <i name="AMIN">      0.10000000</i>
    <i name="AMIX_MAG">      1.60000000</i>
    <i name="BMIX_MAG">      1.00000000</i>
    <separator name="electronic mixer details" >
     <i type="int" name="IMIX">     4</i>
     <i type="logical" name="MIXFIRST"> F  </i>
     <i type="int" name="MAXMIX">   -45</i>
     <i name="WC">    100.00000000</i>
     <i type="int" name="INIMIX">     1</i>
     <i type="int" name="MIXPRE">     1</i>
     <i type="int" name="MREMOVE">     5</i>
    </separator>
   </separator>
   <separator name="electronic dipolcorrection" >
    <i type="logical" name="LDIPOL"> F  </i>
    <i type="logical" name="LMONO"> F  </i>
    <i type="int" name="IDIPOL">     0</i>
    <i name="EPSILON">      1.00000000</i>
    <v name="DIPOL">   -100.00000000   -100.00000000   -100.00000000</v>
    <i name="EFIELD">      0.00000000</i>
   </separator>
  </separator>
  <separator name="grids" >
   <i type="int" name="NGX">    64</i>
   <i type="int" name="NGY">    64</i>
   <i type="int" name="NGZ">    64</i>
   <i type="int" name="NGXF">   128</i>
   <i type="int" name="NGYF">   128</i>
   <i type="int" name="NGZF">   128</i>
   <i type="logical" name="ADDGRID"> T  </i>
  </separator>
  <separator name="ionic" >
   <i type="int" name="NSW">     0</i>
   <i type="int" name="IBRION">    -1</i>
   <i type="int" name="ISIF">     2</i>
   <i name="PSTRESS">      0.00000000</i>
   <i name="EDIFFG">      0.00000010</i>
   <i type="int" name="NFREE">     0</i>
   <i name="POTIM">      0.50000000</i>
   <i name="SMASS">     -3.00000000</i>
   <i name="SCALEE">      1.00000000</i>
  </separator>
  <separator name="ionic md" >
   <i name="TEBEG">      0.00010000</i>
   <i name="TEEND">      0.00010000</i>
   <i type="int" name="NBLOCK">     1</i>
   <i type="int" name="KBLOCK">     1</i>
   <i type="int" name="NPACO">   256</i>
   <i name="APACO">     16.00000000</i>
  </separator>
  <separator name="symmetry" >
   <i type="int" name="ISYM">     2</i>
   <i name="SYMPREC">      0.00001000</i>
  </separator>
  <separator name="dos" >
   <i type="logical" name="LORBIT"> F  </i>
   <v name="RWIGS">     -1.00000000</v>
   <i type="int" name="NEDOS">   301</i>
   <i name="EMIN">     10.00000000</i>
   <i name="EMAX">    -10.00000000</i>
   <i name="EFERMI">      0.00000000</i>
  </separator>
  <separator name="writing" >
   <i type="int" name="NWRITE">     2</i>
   <i type="logical" name="LWAVE"> F  </i>
   <i type="logical" name="LCHARG"> F  </i>
   <i type="logical" name="LPARD"> F  </i>
   <i type="logical" name="LVTOT"> F  </i>
   <i type="logical" name="LVHAR"> F  </i>
   <i type="logical" name="LELF"> F  </i>
   <i type="logical" name="LOPTICS"> F  </i>
   <v name="STM">      0.00000000      0.00000000      0.00000000      0.00000000      0.00000000      0.00000000      0.00000000</v>
  </separator>
  <separator name="performance" >
   <i type="int" name="NPAR">     4</i>
   <i type="int" name="NSIM">     4</i>
   <i type="int" name="NBLK">    -1</i>
   <i type="logical" name="LPLANE"> T  </i>
   <i type="logical" name="LSCALAPACK"> T  </i>
   <i type="logical" name="LSCAAWARE"> F  </i>
   <i type="logical" name="LSCALU"> F  </i>
   <i type="logical" name="LASYNC"> F  </i>
   <i type="logical" name="LORBITALREAL"> F  </i>
  </separator>
  <separator name="miscellaneous" >
   <i type="int" name="IDIOT">     3</i>
   <i type="logical" name="LMUSIC"> F  </i>
   <v name="POMASS">     28.08500000</v>
   <v name="DARWINR">      0.00000000</v>
   <v name="DARWINV">      1.00000000</v>
   <i type="logical" name="LCORR"> T  </i>
  </separator>
  <i type="logical" name="GGA_COMPAT"> T  </i>
  <i type="logical" name="LBERRY"> F  </i>
  <i type="int" name="ICORELEVEL">     0</i>
  <i type="logical" name="LDAU"> F  </i>
  <i type="int" name="I_CONSTRAINED_M">     0</i>
  <separator name="electronic exchange-correlation" >
   <i type="string" name="GGA">--</i>
   <i type="int" name="VOSKOWN">     0</i>
   <i type="logical" name="LHFCALC"> F  </i>
   <i type="string" name="PRECFOCK"></i>
   <i type="logical" name="LSYMGRAD"> F  </i>
   <i type="logical" name="LHFONE"> F  </i>
   <i type="logical" name="LRHFCALC"> F  </i>
   <i type="logical" name="LTHOMAS"> F  </i>
   <i type="logical" name="LMODELHF"> F  </i>
   <i name="ENCUT4O">     -1.00000000</i>
   <i type="int" name="EXXOEP">     0</i>
   <i type="int" name="FOURORBIT">     0</i>
   <i name="AEXX">      0.00000000</i>
   <i name="HFALPHA">      0.00000000</i>
   <i name="MCALPHA">      0.00000000</i>
   <i name="ALDAX">      1.00000000</i>
   <i name="AGGAX">      1.00000000</i>
   <i name="ALDAC">      1.00000000</i>
   <i name="AGGAC">      1.00000000</i>
   <i type="int" name="NKREDX">     1</i>
   <i type="int" name="NKREDY">     1</i>
   <i type="int" name="NKREDZ">     1</i>
   <i type="logical" name="SHIFTRED"> F  </i>
   <i type="logical" name="ODDONLY"> F  </i>
   <i type="logical" name="EVENONLY"> F  </i>
   <i type="int" name="LMAXFOCK">     0</i>
   <i type="int" name="NMAXFOCKAE">     0</i>
   <i type="logical" name="LFOCKAEDFT"> F  </i>
   <i name="HFSCREEN">      0.00000000</i>
   <i name="HFSCREENC">      0.00000000</i>
   <i type="int" name="NBANDSGWLOW">     0</i>
  </separator>
  <separator name="vdW DFT" >
   <i type="logical" name="LUSE_VDW"> F  </i>
   <i name="Zab_VDW">     -0.84910000</i>
   <i name="PARAM1">      0.12340000</i>
   <i name="PARAM2">      1.00000000</i>
   <i name="PARAM3">      0.00000000</i>
  </separator>
  <separator name="model GW" >
   <i type="int" name="MODEL_GW">     0</i>
   <i name="MODEL_EPS0">     12.24990743</i>
   <i name="MODEL_ALPHA">      1.00000000</i>
  </separator>
  <separator name="linear response parameters" >
   <i type="logical" name="LEPSILON"> F  </i>
   <i type="logical" name="LRPA"> F  </i>
   <i type="logical" name="LNABLA"> F  </i>
   <i type="logical" name="LVEL"> F  </i>
   <i type="int" name="KINTER">     0</i>
   <i name="CSHIFT">      0.10000000</i>
   <i name="OMEGAMAX">     -1.00000000</i>
   <i name="DEG_THRESHOLD">      0.00200000</i>
  </separator>
  <separator name="orbital magnetization" >
   <i type="logical" name="NUCIND"> F  </i>
   <v name="MAGPOS">      0.00000000      0.00000000      0.00000000</v>
   <i type="logical" name="LNICSALL"> T  </i>
   <i type="logical" name="ORBITALMAG"> F  </i>
   <i type="logical" name="LMAGBLOCH"> F  </i>
   <i type="logical" name="LCHIMAG"> F  </i>
   <i type="logical" name="LGAUGE"> T  </i>
   <i type="int" name="MAGATOM">     0</i>
   <v name="MAGDIPOL">      0.00000000      0.00000000      0.00000000</v>
   <v name="AVECCONST">      0.00000000      0.00000000      0.00000000</v>
  </separator>
  <separator name="response functions" >
   <i type="logical" name="LADDER"> F  </i>
   <i type="logical" name="LFXC"> F  </i>
   <i type="logical" name="LHARTREE"> T  </i>
   <i type="int" name="IBSE">     0</i>
   <v type="int" name="KPOINT">    -1     0     0     0</v>
   <i type="logical" name="LTCTE"> F  </i>
   <i type="logical" name="LTETE"> F  </i>
   <i type="logical" name="LTRIPLET"> F  </i>
   <i type="logical" name="LFXCEPS"> F  </i>
   <i type="logical" name="LFXHEG"> F  </i>
   <i type="int" name="NATURALO">     0</i>
   <i type="logical" name="L2ORDER"> F  </i>
   <i type="logical" name="LUSEW"> F  </i>
   <i name="ENCUTGW">     -2.00000000</i>
   <i name="ENCUTGWSOFT">     -2.00000000</i>
   <i name="ENCUTLF">     -1.00000000</i>
   <i type="int" name="LMAXMP2">    -1</i>
   <i name="SCISSOR">      0.00000000</i>
   <i type="int" name="NOMEGA">     0</i>
   <i type="int" name="NOMEGAR">     0</i>
   <i type="int" name="NBANDSGW">    -1</i>
   <i type="int" name="NBANDSO">    -1</i>
   <i type="int" name="NBANDSV">    -1</i>
   <i type="int" name="NELM">     1</i>
   <i type="int" name="NELMHF">     1</i>
   <i type="int" name="DIM">     3</i>
   <i type="int" name="ANTIRES">     0</i>
   <i name="OMEGAMAX">    -30.00000000</i>
   <i name="OMEGAMIN">    -30.00000000</i>
   <i name="OMEGATL">   -200.00000000</i>
   <i type="int" name="OMEGAGRID">     0</i>
   <i name="CSHIFT">     -0.10000000</i>
   <i type="logical" name="SELFENERGY"> F  </i>
   <i type="logical" name="LSPECTRAL"> F  </i>
   <i type="logical" name="LSPECTRALGW"> F  </i>
   <i type="logical" name="LSINGLES"> F  </i>
   <i type="logical" name="LFERMIGW"> F  </i>
   <i type="logical" name="ODDONLYGW"> F  </i>
   <i type="logical" name="EVENONLYGW"> F  </i>
   <i type="int" name="NKREDLFX">     1</i>
   <i type="int" name="NKREDLFY">     1</i>
   <i type="int" name="NKREDLFZ">     1</i>
   <i type="int" name="MAXMEM">  1800</i>
   <i type="int" name="TELESCOPE">     0</i>
   <i type="int" name="TAUPAR">     1</i>
   <i type="int" name="OMEGAPAR">    -1</i>
   <i name="LAMBDA">      1.00000000</i>
  </separator>
  <separator name="External order field" >
   <i name="OFIELD_KAPPA">      0.00000000</i>
   <v name="OFIELD_K">      0.00000000      0.00000000      0.00000000</v>
   <i name="OFIELD_Q6_NEAR">      0.00000000</i>
   <i name="OFIELD_Q6_FAR">      0.00000000</i>
   <i name="OFIELD_A">      0.00000000</i>
  </separator>
 </parameters>
 <atominfo>
  <atoms>      64 </atoms>
  <types>       1 </types>
  <array name="atoms" >
   <dimension dim="1">ion</dimension>
   <field type="string">element</field>
   <field type="int">atomtype</field>
   <set>
    <rc><c>Si</c><c>   1</c></rc>
    <rc><c>Si</c><c>   1</c></rc>
    <rc><c>Si</c><c>   1</c></rc>
    <rc><c>Si</c><c>   1</c></rc>
    <rc><c>Si</c><c>   1</c></rc>
    <rc><c>Si</c><c>   1</c></rc>
    <rc><c>Si</c><c>   1</c></rc>
    <rc><c>Si</c><c>   1</c></rc>
    <rc><c>Si</c><c>   1</c></rc>
    <rc><c>Si</c><c>   1</c></rc>
    <rc><c>Si</c><c>   1</c></rc>
    <rc><c>Si</c><c>   1</c></rc>
    <rc><c>Si</c><c>   1</c></rc>
    <rc><c>Si</c><c>   1</c></rc>
    <rc><c>Si</c><c>   1</c></rc>
    <rc><c>Si</c><c>   1</c></rc>
    <rc><c>Si</c><c>   1</c></rc>
    <rc><c>Si</c><c>   1</c></rc>
    <rc><c>Si</c><c>   1</c></rc>
    <rc><c>Si</c><c>   1</c></rc>
    <rc><c>Si</c><c>   1</c></rc>
    <rc><c>Si</c><c>   1</c></rc>
    <rc><c>Si</c><c>   1</c></rc>
    <rc><c>Si</c><c>   1</c></rc>
    <rc><c>Si</c><c>   1</c></rc>
    <rc><c>Si</c><c>   1</c></rc>
    <rc><c>Si</c><c>   1</c></rc>
    <rc><c>Si</c><c>   1</c></rc>
    <rc><c>Si</c><c>   1</c></rc>
    <rc><c>Si</c><c>   1</c></rc>
    <rc><c>Si</c><c>   1</c></rc>
    <rc><c>Si</c><c>   1</c></rc>
    <rc><c>Si</c><c>   1</c></rc>
    <rc><c>Si</c><c>   1</c></rc>
    <rc><c>Si</c><c>   1</c></rc>
    <rc><c>Si</c><c>   1</c></rc>
    <rc><c>Si</c><c>   1</c></rc>
    <rc><c>Si</c><c>   1</c></rc>
    <rc><c>Si</c><c>   1</c></rc>
    <rc><c>Si</c><c>   1</c></rc>
    <rc><c>Si</c><c>   1</c></rc>
    <rc><c>Si</c><c>   1</c></rc>
    <rc><c>Si</c><c>   1</c></rc>
    <rc><c>Si</c><c>   1</c></rc>
    <rc><c>Si</c><c>   1</c></rc>
    <rc><c>Si</c><c>   1</c></rc>
    <rc><c>Si</c><c>   1</c></rc>
    <rc><c>Si</c><c>   1</c></rc>
    <rc><c>Si</c><c>   1</c></rc>
    <rc><c>Si</c><c>   1</c></rc>
    <rc><c>Si</c><c>   1</c></rc>
    <rc><c>Si</c><c>   1</c></rc>
    <rc><c>Si</c><c>   1</c></rc>
    <rc><c>Si</c><c>   1</c></rc>
    <rc><c>Si</c><c>   1</c></rc>
    <rc><c>Si</c><c>   1</c></rc>
    <rc><c>Si</c><c>   1</c></rc>
    <rc><c>Si</c><c>   1</c></rc>
    <rc><c>Si</c><c>   1</c></rc>
    <rc><c>Si</c><c>   1</c></rc>
    <rc><c>Si</c><c>   1</c></rc>
    <rc><c>Si</c><c>   1</c></rc>
    <rc><c>Si</c><c>   1</c></rc>
    <rc><c>Si</c><c>   1</c></rc>
   </set>
  </array>
  <array name="atomtypes" >
   <dimension dim="1">type</dimension>
   <field type="int">atomspertype</field>
   <field type="string">element</field>
   <field>mass</field>
   <field>valence</field>
   <field type="string">pseudopotential</field>
   <set>
    <rc><c>  64</c><c>Si</c><c>     28.08500000</c><c>      4.00000000</c><c>  PAW_PBE Si 05Jan2001                  </c></rc>
   </set>
  </array>
 </atominfo>
 <structure name="initialpos" >
  <crystal>
   <varray name="basis" >
    <v>      10.93252578       0.00000000       0.00000000 </v>
    <v>       0.00000000      10.93252578       0.00000000 </v>
    <v>       0.00000000       0.00000000      10.93252578 </v>
   </varray>
   <i name="volume">   1306.65679237 </i>
   <varray name="rec_basis" >
    <v>       0.09147017       0.00000000       0.00000000 </v>
    <v>       0.00000000       0.09147017       0.00000000 </v>
    <v>       0.00000000       0.00000000       0.09147017 </v>
   </varray>
  </crystal>
  <varray name="positions" >
   <v>       0.44024411       0.43750000       0.43750000 </v>
   <v>       0.93750000       0.43750000       0.43750000 </v>
   <v>       0.43750000       0.93750000       0.43750000 </v>
   <v>       0.93750000       0.93750000       0.43750000 </v>
   <v>       0.43750000       0.43750000       0.93750000 </v>
   <v>       0.93750000       0.43750000       0.93750000 </v>
   <v>       0.43555962       0.93555962       0.93750000 </v>
   <v>       0.93750000       0.93750000       0.93750000 </v>
   <v>       0.43750000       0.18750000       0.18750000 </v>
   <v>       0.93750000       0.18750000       0.18750000 </v>
   <v>       0.43750000       0.68750000       0.18750000 </v>
   <v>       0.93750000       0.68750000       0.18750000 </v>
   <v>       0.43750000       0.18750000       0.68750000 </v>
   <v>       0.93750000       0.18750000       0.68750000 </v>
   <v>       0.43750000       0.68750000       0.68750000 </v>
   <v>       0.93750000       0.68750000       0.68750000 </v>
   <v>       0.18750000       0.43750000       0.18750000 </v>
   <v>       0.68750000       0.43750000       0.18750000 </v>
   <v>       0.18750000       0.93750000       0.18750000 </v>
   <v>       0.68750000       0.93750000       0.18750000 </v>
   <v>       0.18750000       0.43750000       0.68750000 </v>
   <v>       0.68750000       0.43750000       0.68750000 </v>
   <v>       0.18750000       0.93750000       0.68750000 </v>
   <v>       0.68750000       0.93750000       0.68750000 </v>
   <v>       0.18750000       0.18750000       0.43750000 </v>
   <v>       0.68750000       0.18750000       0.43750000 </v>
   <v>       0.18750000       0.68750000       0.43750000 </v>
   <v>       0.68750000       0.68750000       0.43750000 </v>
   <v>       0.18750000       0.18750000       0.93750000 </v>
   <v>       0.68750000       0.18750000       0.93750000 </v>
   <v>       0.18750000       0.68750000       0.93750000 </v>
   <v>       0.68750000       0.68750000       0.93750000 </v>
   <v>       0.06250000       0.06250000       0.06250000 </v>
   <v>       0.56250000       0.06250000       0.06250000 </v>
   <v>       0.06250000       0.56250000       0.06250000 </v>
   <v>       0.56250000       0.56250000       0.06250000 </v>
   <v>       0.06250000       0.06250000       0.56250000 </v>
   <v>       0.56250000       0.06250000       0.56250000 </v>
   <v>       0.06250000       0.56250000       0.56250000 </v>
   <v>       0.56250000       0.56250000       0.56250000 </v>
   <v>       0.06250000       0.31250000       0.31250000 </v>
   <v>       0.56250000       0.31250000       0.31250000 </v>
   <v>       0.06250000       0.81250000       0.31250000 </v>
   <v>       0.56250000       0.81250000       0.31250000 </v>
   <v>       0.06250000       0.31250000       0.81250000 </v>
   <v>       0.56250000       0.31250000       0.81250000 </v>
   <v>       0.06250000       0.81250000       0.81250000 </v>
   <v>       0.56250000       0.81250000       0.81250000 </v>
   <v>       0.31250000       0.06250000       0.31250000 </v>
   <v>       0.81250000       0.06250000       0.31250000 </v>
   <v>       0.31250000       0.56250000       0.31250000 </v>
   <v>       0.81250000       0.56250000       0.31250000 </v>
   <v>       0.31250000       0.06250000       0.81250000 </v>
   <v>       0.81250000       0.06250000       0.81250000 </v>
   <v>       0.31250000       0.56250000       0.81250000 </v>
   <v>       0.81250000       0.56250000       0.81250000 </v>
   <v>       0.31250000       0.31250000       0.06250000 </v>
   <v>       0.81250000       0.31250000       0.06250000 </v>
   <v>       0.31250000       0.81250000       0.06250000 </v>
   <v>       0.81250000       0.81250000       0.06250000 </v>
   <v>       0.31250000       0.31250000       0.56250000 </v>
   <v>       0.81250000       0.31250000       0.56250000 </v>
   <v>       0.31250000       0.81250000       0.56250000 </v>
   <v>       0.81250000       0.81250000       0.56250000 </v>
  </varray>
 </structure>
 <calculation>
  <scstep>
   <time name="dav">    4.24    4.24</time>
   <time name="total">    4.42    4.43</time>
   <energy>
    <i name="alphaZ">    105.52440745 </i>
    <i name="ewald">  -7265.47173555 </i>
    <i name="hartreedc">   -361.71190630 </i>
    <i name="XCdc">   -597.75714171 </i>
    <i name="pawpsdc">   5639.92317535 </i>
    <i name="pawaedc">  -4513.95313856 </i>
    <i name="eentropy">     -0.00125300 </i>
    <i name="bandstr">    856.86395471 </i>
    <i name="atom">   6596.14994790 </i>
    <i name="e_fr_energy">    459.56631030 </i>
    <i name="e_wo_entrp">    459.56756330 </i>
    <i name="e_0_energy">    459.56693680 </i>
   </energy>
  </scstep>
  <scstep>
   <time name="dav">    4.88    4.88</time>
   <time name="total">    4.88    4.90</time>
   <energy>
    <i name="e_fr_energy">   -300.08699791 </i>
    <i name="e_wo_entrp">   -300.08699791 </i>
    <i name="e_0_energy">   -300.08699791 </i>
   </energy>
  </scstep>
  <scstep>
   <time name="dav">    4.94    4.93</time>
   <time name="total">    4.94    4.94</time>
   <energy>
    <i name="e_fr_energy">   -351.03358762 </i>
    <i name="e_wo_entrp">   -351.03358762 </i>
    <i name="e_0_energy">   -351.03358762 </i>
   </energy>
  </scstep>
  <scstep>
   <time name="dav">    4.89    4.89</time>
   <time name="total">    4.89    4.89</time>
   <energy>
    <i name="e_fr_energy">   -352.26790382 </i>
    <i name="e_wo_entrp">   -352.26790382 </i>
    <i name="e_0_energy">   -352.26790382 </i>
   </energy>
  </scstep>
  <scstep>
   <time name="dav">    4.92    4.92</time>
   <time name="total">    5.15    5.15</time>
   <energy>
    <i name="e_fr_energy">   -352.31383110 </i>
    <i name="e_wo_entrp">   -352.31383110 </i>
    <i name="e_0_energy">   -352.31383110 </i>
   </energy>
  </scstep>
  <scstep>
   <time name="dav">    4.76    4.76</time>
   <time name="total">    5.17    5.17</time>
   <energy>
    <i name="e_fr_energy">   -348.58481485 </i>
    <i name="e_wo_entrp">   -348.58481485 </i>
    <i name="e_0_energy">   -348.58481485 </i>
   </energy>
  </scstep>
  <scstep>
   <time name="dav">    4.72    4.74</time>
   <time name="total">    5.13    5.16</time>
   <energy>
    <i name="e_fr_energy">   -346.87203082 </i>
    <i name="e_wo_entrp">   -346.87203082 </i>
    <i name="e_0_energy">   -346.87203082 </i>
   </energy>
  </scstep>
  <scstep>
   <time name="dav">    4.82    4.82</time>
   <time name="total">    5.23    5.23</time>
   <energy>
    <i name="e_fr_energy">   -346.89842344 </i>
    <i name="e_wo_entrp">   -346.89842344 </i>
    <i name="e_0_energy">   -346.89842344 </i>
   </energy>
  </scstep>
  <scstep>
   <time name="dav">    4.94    4.94</time>
   <time name="total">    5.35    5.35</time>
   <energy>
    <i name="e_fr_energy">   -346.90510512 </i>
    <i name="e_wo_entrp">   -346.90510512 </i>
    <i name="e_0_energy">   -346.90510512 </i>
   </energy>
  </scstep>
  <scstep>
   <time name="dav">    4.62    4.62</time>
   <time name="total">    5.03    5.03</time>
   <energy>
    <i name="e_fr_energy">   -346.90716604 </i>
    <i name="e_wo_entrp">   -346.90716604 </i>
    <i name="e_0_energy">   -346.90716604 </i>
   </energy>
  </scstep>
  <scstep>
   <time name="dav">    4.90    4.90</time>
   <time name="total">    5.31    5.31</time>
   <energy>
    <i name="e_fr_energy">   -346.90713952 </i>
    <i name="e_wo_entrp">   -346.90713952 </i>
    <i name="e_0_energy">   -346.90713952 </i>
   </energy>
  </scstep>
  <scstep>
   <time name="dav">    4.75    4.75</time>
   <time name="total">    5.16    5.16</time>
   <energy>
    <i name="e_fr_energy">   -346.90715473 </i>
    <i name="e_wo_entrp">   -346.90715473 </i>
    <i name="e_0_energy">   -346.90715473 </i>
   </energy>
  </scstep>
  <scstep>
   <time name="dav">    4.76    4.76</time>
   <time name="total">    5.18    5.19</time>
   <energy>
    <i name="e_fr_energy">   -346.90715530 </i>
    <i name="e_wo_entrp">   -346.90715530 </i>
    <i name="e_0_energy">   -346.90715530 </i>
   </energy>
  </scstep>
  <scstep>
   <time name="dav">    4.98    4.98</time>
   <time name="total">    5.39    5.44</time>
   <energy>
    <i name="e_fr_energy">   -346.90715585 </i>
    <i name="e_wo_entrp">   -346.90715585 </i>
    <i name="e_0_energy">   -346.90715585 </i>
   </energy>
  </scstep>
  <scstep>
   <time name="dav">    4.17    4.17</time>
   <time name="total">    4.58    4.58</time>
   <energy>
    <i name="e_fr_energy">   -346.90715559 </i>
    <i name="e_wo_entrp">   -346.90715559 </i>
    <i name="e_0_energy">   -346.90715559 </i>
   </energy>
  </scstep>
  <scstep>
   <time name="dav">    3.30    3.30</time>
   <time name="total">    3.71    3.73</time>
   <energy>
    <i name="e_fr_energy">   -346.90715570 </i>
    <i name="e_wo_entrp">   -346.90715570 </i>
    <i name="e_0_energy">   -346.90715570 </i>
   </energy>
  </scstep>
  <scstep>
   <time name="dav">    3.27    3.27</time>
   <time name="total">    3.68    3.69</time>
   <energy>
    <i name="e_fr_energy">   -346.90715568 </i>
    <i name="e_wo_entrp">   -346.90715568 </i>
    <i name="e_0_energy">   -346.90715568 </i>
   </energy>
  </scstep>
  <scstep>
   <time name="dav">    3.27    3.27</time>
   <time name="total">    3.45    3.46</time>
   <energy>
    <i name="alphaZ">    105.52440745 </i>
    <i name="ewald">  -7265.47173555 </i>
    <i name="hartreedc">   -485.14308311 </i>
    <i name="XCdc">   -577.61228389 </i>
    <i name="pawpsdc">  27883.42069380 </i>
    <i name="pawaedc"> -26764.13861744 </i>
    <i name="eentropy">      0.00000000 </i>
    <i name="bandstr">    160.36351517 </i>
    <i name="atom">   6596.14994790 </i>
    <i name="e_fr_energy">   -346.90715569 </i>
    <i name="e_wo_entrp">   -346.90715569 </i>
    <i name="e_0_energy">   -346.90715569 </i>
   </energy>
  </scstep>
  <structure>
   <crystal>
    <varray name="basis" >
     <v>      10.93252578       0.00000000       0.00000000 </v>
     <v>       0.00000000      10.93252578       0.00000000 </v>
     <v>       0.00000000       0.00000000      10.93252578 </v>
    </varray>
    <i name="volume">   1306.65679237 </i>
    <varray name="rec_basis" >
     <v>       0.09147017       0.00000000       0.00000000 </v>
     <v>       0.00000000       0.09147017       0.00000000 </v>
     <v>       0.00000000       0.00000000       0.09147017 </v>
    </varray>
   </crystal>
   <varray name="positions" >
    <v>       0.44024411       0.43750000       0.43750000 </v>
    <v>       0.93750000       0.43750000       0.43750000 </v>
    <v>       0.43750000       0.93750000       0.43750000 </v>
    <v>       0.93750000       0.93750000       0.43750000 </v>
    <v>       0.43750000       0.43750000       0.93750000 </v>
    <v>       0.93750000       0.43750000       0.93750000 </v>
    <v>       0.43555962       0.93555962       0.93750000 </v>
    <v>       0.93750000       0.93750000       0.93750000 </v>
    <v>       0.43750000       0.18750000       0.18750000 </v>
    <v>       0.93750000       0.18750000       0.18750000 </v>
    <v>       0.43750000       0.68750000       0.18750000 </v>
    <v>       0.93750000       0.68750000       0.18750000 </v>
    <v>       0.43750000       0.18750000       0.68750000 </v>
    <v>       0.93750000       0.18750000       0.68750000 </v>
    <v>       0.43750000       0.68750000       0.68750000 </v>
    <v>       0.93750000       0.68750000       0.68750000 </v>
    <v>       0.18750000       0.43750000       0.18750000 </v>
    <v>       0.68750000       0.43750000       0.18750000 </v>
    <v>       0.18750000       0.93750000       0.18750000 </v>
    <v>       0.68750000       0.93750000       0.18750000 </v>
    <v>       0.18750000       0.43750000       0.68750000 </v>
    <v>       0.68750000       0.43750000       0.68750000 </v>
    <v>       0.18750000       0.93750000       0.68750000 </v>
    <v>       0.68750000       0.93750000       0.68750000 </v>
    <v>       0.18750000       0.18750000       0.43750000 </v>
    <v>       0.68750000       0.18750000       0.43750000 </v>
    <v>       0.18750000       0.68750000       0.43750000 </v>
    <v>       0.68750000       0.68750000       0.43750000 </v>
    <v>       0.18750000       0.18750000       0.93750000 </v>
    <v>       0.68750000       0.18750000       0.93750000 </v>
    <v>       0.18750000       0.68750000       0.93750000 </v>
    <v>       0.68750000       0.68750000       0.93750000 </v>
    <v>       0.06250000       0.06250000       0.06250000 </v>
    <v>       0.56250000       0.06250000       0.06250000 </v>
    <v>       0.06250000       0.56250000       0.06250000 </v>
    <v>       0.56250000       0.56250000       0.06250000 </v>
    <v>       0.06250000       0.06250000       0.56250000 </v>
    <v>       0.56250000       0.06250000       0.56250000 </v>
    <v>       0.06250000       0.56250000       0.56250000 </v>
    <v>       0.56250000       0.56250000       0.56250000 </v>
    <v>       0.06250000       0.31250000       0.31250000 </v>
    <v>       0.56250000       0.31250000       0.31250000 </v>
    <v>       0.06250000       0.81250000       0.31250000 </v>
    <v>       0.56250000       0.81250000       0.31250000 </v>
    <v>       0.06250000       0.31250000       0.81250000 </v>
    <v>       0.56250000       0.31250000       0.81250000 </v>
    <v>       0.06250000       0.81250000       0.81250000 </v>
    <v>       0.56250000       0.81250000       0.81250000 </v>
    <v>       0.31250000       0.06250000       0.31250000 </v>
    <v>       0.81250000       0.06250000       0.31250000 </v>
    <v>       0.31250000       0.56250000       0.31250000 </v>
    <v>       0.81250000       0.56250000       0.31250000 </v>
    <v>       0.31250000       0.06250000       0.81250000 </v>
    <v>       0.81250000       0.06250000       0.81250000 </v>
    <v>       0.31250000       0.56250000       0.81250000 </v>
    <v>       0.81250000       0.56250000       0.81250000 </v>
    <v>       0.31250000       0.31250000       0.06250000 </v>
    <v>       0.81250000       0.31250000       0.06250000 </v>
    <v>       0.31250000       0.81250000       0.06250000 </v>
    <v>       0.81250000       0.81250000       0.06250000 </v>
    <v>       0.31250000       0.31250000       0.56250000 </v>
    <v>       0.81250000       0.31250000       0.56250000 </v>
    <v>       0.31250000       0.81250000       0.56250000 </v>
    <v>       0.81250000       0.81250000       0.56250000 </v>
   </varray>
  </structure>
  <varray name="forces" >
   <v>      -0.37897259       0.00012470       0.00000085 </v>
   <v>       0.00014159      -0.00040797       0.00000625 </v>
   <v>       0.00038623      -0.00093126       0.00000507 </v>
   <v>      -0.00005179       0.00816794      -0.00000137 </v>
   <v>       0.00038625      -0.00038863       0.00001514 </v>
   <v>      -0.00005138       0.00012515       0.00000330 </v>
   <v>       0.26247010       0.27401911      -0.01411047 </v>
   <v>       0.00018830      -0.00093121       0.00001133 </v>
   <v>      -0.00573603       0.00069196       0.00070577 </v>
   <v>      -0.00018537      -0.00033888       0.00170653 </v>
   <v>      -0.00562619       0.00048782      -0.00062034 </v>
   <v>      -0.00014740      -0.00031724      -0.00170078 </v>
   <v>      -0.00177410      -0.00866016       0.00854272 </v>
   <v>       0.00017696      -0.00110422      -0.00091982 </v>
   <v>      -0.00188995      -0.00871708      -0.00869271 </v>
   <v>       0.00014091      -0.00112283       0.00091760 </v>
   <v>       0.00509483      -0.00282511       0.00409070 </v>
   <v>       0.00523905      -0.00292187      -0.00421172 </v>
   <v>      -0.00116557       0.00692660       0.00017639 </v>
   <v>      -0.00105027       0.00690753      -0.00022322 </v>
   <v>       0.00475228       0.00284406      -0.00441157 </v>
   <v>       0.00493039       0.00294012       0.00454147 </v>
   <v>      -0.00492334       0.01121997      -0.00407299 </v>
   <v>      -0.00497997       0.01123400       0.00401826 </v>
   <v>       0.00360406       0.00353153      -0.00268238 </v>
   <v>       0.00639209      -0.00510069      -0.00309276 </v>
   <v>       0.00623867      -0.00496871       0.00299844 </v>
   <v>       0.00378097       0.00365351       0.00275776 </v>
   <v>       0.00095872      -0.00195016      -0.00027602 </v>
   <v>      -0.00684949      -0.00601238      -0.00403384 </v>
   <v>      -0.00716393      -0.00633069       0.00411171 </v>
   <v>       0.00093796      -0.00190047       0.00018453 </v>
   <v>      -0.00097253       0.00114156      -0.00076660 </v>
   <v>      -0.10101411      -0.10649093      -0.08313953 </v>
   <v>      -0.00031450      -0.00027455      -0.00038204 </v>
   <v>      -0.00109105       0.00077433      -0.00059779 </v>
   <v>      -0.00032819      -0.00423958      -0.00028128 </v>
   <v>      -0.00131009       0.00108925      -0.00007341 </v>
   <v>      -0.00042191       0.00076391      -0.00015515 </v>
   <v>       0.09093472       0.06517592       0.06518967 </v>
   <v>       0.00063061       0.00000462      -0.00091904 </v>
   <v>       0.09190053      -0.06607114      -0.06606061 </v>
   <v>       0.00063920      -0.00449402      -0.00070122 </v>
   <v>       0.00037362       0.00102088      -0.00124485 </v>
   <v>       0.00060221      -0.00066707      -0.00057383 </v>
   <v>       0.00017546      -0.00038013      -0.00069084 </v>
   <v>       0.00031052       0.00093806      -0.00097543 </v>
   <v>      -0.01636515      -0.02193045       0.00033310 </v>
   <v>       0.00051293       0.00095968       0.00121308 </v>
   <v>       0.00069780      -0.00451481       0.00074492 </v>
   <v>       0.08921010      -0.06094154       0.06092319 </v>
   <v>       0.00063425      -0.00000082       0.00089469 </v>
   <v>      -0.01509934      -0.02324349       0.00169262 </v>
   <v>       0.00029283       0.00090218       0.00098073 </v>
   <v>       0.00025668      -0.00040424       0.00066805 </v>
   <v>       0.00065009      -0.00072134       0.00066549 </v>
   <v>      -0.00104394       0.00079248       0.00060862 </v>
   <v>      -0.00018752      -0.00014747       0.00029911 </v>
   <v>      -0.11021227      -0.11571889       0.09550778 </v>
   <v>      -0.00098899       0.00113234       0.00075326 </v>
   <v>       0.08825022       0.06002662      -0.06004170 </v>
   <v>      -0.00043485       0.00074584       0.00015331 </v>
   <v>      -0.00127976       0.00104377       0.00003400 </v>
   <v>      -0.00025958      -0.00421543       0.00019789 </v>
  </varray>
  <varray name="stress" >
   <v>      -0.00785130       0.01223929      -0.23689194 </v>
   <v>       0.01223926       0.01124185       0.09794640 </v>
   <v>      -0.23689193       0.09794639       0.02086923 </v>
  </varray>
  <energy>
   <i name="e_fr_energy">   -346.90715569 </i>
   <i name="e_wo_entrp">   -346.90715569 </i>
   <i name="e_0_energy">      0.00000000 </i>
  </energy>
  <time name="totalsc">   96.68   96.89</time>
  <eigenvalues>
   <array>
    <dimension dim="1">band</dimension>
    <dimension dim="2">kpoint</dimension>
    <dimension dim="3">spin</dimension>
    <field>eigene</field>
    <field>occ</field>
    <set>
     <set comment="spin 1">
      <set comment="kpoint 1">
       <r>   -5.9932    1.0000 </r>
       <r>   -5.4682    1.0000 </r>
       <r>   -5.4643    1.0000 </r>
       <r>   -5.4616    1.0000 </r>
       <r>   -4.9689    1.0000 </r>
       <r>   -4.9651    1.0000 </r>
       <r>   -4.9626    1.0000 </r>
       <r>   -4.5325    1.0000 </r>
       <r>   -4.4361    1.0000 </r>
       <r>   -4.4320    1.0000 </r>
       <r>   -4.4294    1.0000 </r>
       <r>   -4.0235    1.0000 </r>
       <r>   -4.0194    1.0000 </r>
       <r>   -4.0164    1.0000 </r>
       <r>   -4.0143    1.0000 </r>
       <r>   -4.0138    1.0000 </r>
       <r>   -4.0108    1.0000 </r>
       <r>   -3.8260    1.0000 </r>
       <r>   -3.8249    1.0000 </r>
       <r>   -3.8217    1.0000 </r>
       <r>   -3.3335    1.0000 </r>
       <r>   -3.3277    1.0000 </r>
       <r>   -3.3250    1.0000 </r>
       <r>   -2.9613    1.0000 </r>
       <r>   -2.9598    1.0000 </r>
       <r>   -2.9563    1.0000 </r>
       <r>   -2.7977    1.0000 </r>
       <r>   -2.7939    1.0000 </r>
       <r>   -2.7908    1.0000 </r>
       <r>   -2.7891    1.0000 </r>
       <r>   -2.7883    1.0000 </r>
       <r>   -2.7848    1.0000 </r>
       <r>   -1.2565    1.0000 </r>
       <r>   -1.2526    1.0000 </r>
       <r>   -1.2486    1.0000 </r>
       <r>   -1.2466    1.0000 </r>
       <r>   -1.2454    1.0000 </r>
       <r>   -1.2441    1.0000 </r>
       <r>   -1.1534    1.0000 </r>
       <r>   -1.1517    1.0000 </r>
       <r>   -1.1484    1.0000 </r>
       <r>   -1.0358    1.0000 </r>
       <r>   -1.0333    1.0000 </r>
       <r>   -1.0303    1.0000 </r>
       <r>   -0.9537    1.0000 </r>
       <r>   -0.9466    1.0000 </r>
       <r>   -0.9372    1.0000 </r>
       <r>   -0.2439    1.0000 </r>
       <r>   -0.1672    1.0000 </r>
       <r>   -0.1651    1.0000 </r>
       <r>   -0.1603    1.0000 </r>
       <r>   -0.1595    1.0000 </r>
       <r>   -0.1560    1.0000 </r>
       <r>   -0.1543    1.0000 </r>
       <r>    0.7102    1.0000 </r>
       <r>    0.7145    1.0000 </r>
       <r>    0.7195    1.0000 </r>
       <r>    1.0440    1.0000 </r>
       <r>    1.0472    1.0000 </r>
       <r>    1.0500    1.0000 </r>
       <r>    1.6520    1.0000 </r>
       <r>    1.6555    1.0000 </r>
       <r>    1.6563    1.0000 </r>
       <r>    1.6575    1.0000 </r>
       <r>    1.6594    1.0000 </r>
       <r>    1.6610    1.0000 </r>
       <r>    1.7122    1.0000 </r>
       <r>    1.7165    1.0000 </r>
       <r>    1.7189    1.0000 </r>
       <r>    2.2670    1.0000 </r>
       <r>    2.2678    1.0000 </r>
       <r>    2.2694    1.0000 </r>
       <r>    2.3661    1.0000 </r>
       <r>    2.3674    1.0000 </r>
       <r>    2.3698    1.0000 </r>
       <r>    2.3712    1.0000 </r>
       <r>    2.3732    1.0000 </r>
       <r>    2.3761    1.0000 </r>
       <r>    2.4215    1.0000 </r>
       <r>    2.4253    1.0000 </r>
       <r>    2.4266    1.0000 </r>
       <r>    2.7300    1.0000 </r>
       <r>    2.7328    1.0000 </r>
       <r>    2.7349    1.0000 </r>
       <r>    2.7355    1.0000 </r>
       <r>    2.7366    1.0000 </r>
       <r>    2.7401    1.0000 </r>
       <r>    2.9973    1.0000 </r>
       <r>    2.9994    1.0000 </r>
       <r>    2.9998    1.0000 </r>
       <r>    3.0101    1.0000 </r>
       <r>    3.0143    1.0000 </r>
       <r>    3.0160    1.0000 </r>
       <r>    3.3590    1.0000 </r>
       <r>    3.3624    1.0000 </r>
       <r>    3.3644    1.0000 </r>
       <r>    3.3833    1.0000 </r>
       <r>    3.3847    1.0000 </r>
       <r>    3.3881    1.0000 </r>
       <r>    3.4641    1.0000 </r>
       <r>    3.4662    1.0000 </r>
       <r>    3.4689    1.0000 </r>
       <r>    3.7345    1.0000 </r>
       <r>    3.7399    1.0000 </r>
       <r>    3.7411    1.0000 </r>
       <r>    3.7419    1.0000 </r>
       <r>    3.7429    1.0000 </r>
       <r>    3.7505    1.0000 </r>
       <r>    3.7778    1.0000 </r>
       <r>    3.7804    1.0000 </r>
       <r>    3.7833    1.0000 </r>
       <r>    4.0414    1.0000 </r>
       <r>    4.0958    1.0000 </r>
       <r>    4.0977    1.0000 </r>
       <r>    4.0990    1.0000 </r>
       <r>    4.3377    1.0000 </r>
       <r>    4.3401    1.0000 </r>
       <r>    4.3441    1.0000 </r>
       <r>    4.4009    1.0000 </r>
       <r>    4.4059    1.0000 </r>
       <r>    4.4136    1.0000 </r>
       <r>    4.5605    1.0000 </r>
       <r>    4.5647    1.0000 </r>
       <r>    4.8655    1.0000 </r>
       <r>    4.8689    1.0000 </r>
       <r>    4.8741    1.0000 </r>
       <r>    5.3468    1.0000 </r>
       <r>    5.3515    1.0000 </r>
       <r>    6.5615    0.0000 </r>
       <r>    6.5627    0.0000 </r>
       <r>    6.5651    0.0000 </r>
       <r>    7.0010    0.0000 </r>
       <r>    7.0040    0.0000 </r>
       <r>    7.0080    0.0000 </r>
       <r>    7.2335    0.0000 </r>
       <r>    7.4878    0.0000 </r>
       <r>    7.4902    0.0000 </r>
       <r>    7.4933    0.0000 </r>
       <r>    7.6174    0.0000 </r>
       <r>    7.6204    0.0000 </r>
       <r>    7.6217    0.0000 </r>
       <r>    7.7775    0.0000 </r>
       <r>    7.7789    0.0000 </r>
       <r>    7.7824    0.0000 </r>
       <r>    7.7990    0.0000 </r>
       <r>    7.8014    0.0000 </r>
       <r>    7.8031    0.0000 </r>
       <r>    8.0254    0.0000 </r>
       <r>    8.0272    0.0000 </r>
       <r>    8.0307    0.0000 </r>
       <r>    8.0319    0.0000 </r>
       <r>    8.0337    0.0000 </r>
       <r>    8.0362    0.0000 </r>
       <r>    8.0811    0.0000 </r>
       <r>    8.2927    0.0000 </r>
       <r>    8.2944    0.0000 </r>
       <r>    8.2978    0.0000 </r>
       <r>    8.4938    0.0000 </r>
       <r>    8.5000    0.0000 </r>
       <r>    8.5026    0.0000 </r>
       <r>    8.5050    0.0000 </r>
       <r>    8.5095    0.0000 </r>
       <r>    8.5210    0.0000 </r>
       <r>    8.5502    0.0000 </r>
      </set>
      <set comment="kpoint 2">
       <r>   -5.9931    1.0000 </r>
       <r>   -5.4697    1.0000 </r>
       <r>   -5.4643    1.0000 </r>
       <r>   -5.4604    1.0000 </r>
       <r>   -4.9702    1.0000 </r>
       <r>   -4.9650    1.0000 </r>
       <r>   -4.9613    1.0000 </r>
       <r>   -4.5317    1.0000 </r>
       <r>   -4.4374    1.0000 </r>
       <r>   -4.4319    1.0000 </r>
       <r>   -4.4276    1.0000 </r>
       <r>   -4.0243    1.0000 </r>
       <r>   -4.0212    1.0000 </r>
       <r>   -4.0164    1.0000 </r>
       <r>   -4.0149    1.0000 </r>
       <r>   -4.0138    1.0000 </r>
       <r>   -4.0096    1.0000 </r>
       <r>   -3.8268    1.0000 </r>
       <r>   -3.8239    1.0000 </r>
       <r>   -3.8230    1.0000 </r>
       <r>   -3.3327    1.0000 </r>
       <r>   -3.3276    1.0000 </r>
       <r>   -3.3222    1.0000 </r>
       <r>   -2.9617    1.0000 </r>
       <r>   -2.9589    1.0000 </r>
       <r>   -2.9576    1.0000 </r>
       <r>   -2.7990    1.0000 </r>
       <r>   -2.7947    1.0000 </r>
       <r>   -2.7909    1.0000 </r>
       <r>   -2.7895    1.0000 </r>
       <r>   -2.7879    1.0000 </r>
       <r>   -2.7838    1.0000 </r>
       <r>   -1.2577    1.0000 </r>
       <r>   -1.2517    1.0000 </r>
       <r>   -1.2486    1.0000 </r>
       <r>   -1.2476    1.0000 </r>
       <r>   -1.2450    1.0000 </r>
       <r>   -1.2419    1.0000 </r>
       <r>   -1.1524    1.0000 </r>
       <r>   -1.1497    1.0000 </r>
       <r>   -1.1489    1.0000 </r>
       <r>   -1.0339    1.0000 </r>
       <r>   -1.0323    1.0000 </r>
       <r>   -1.0297    1.0000 </r>
       <r>   -0.9533    1.0000 </r>
       <r>   -0.9467    1.0000 </r>
       <r>   -0.9462    1.0000 </r>
       <r>   -0.2464    1.0000 </r>
       <r>   -0.1677    1.0000 </r>
       <r>   -0.1606    1.0000 </r>
       <r>   -0.1602    1.0000 </r>
       <r>   -0.1582    1.0000 </r>
       <r>   -0.1556    1.0000 </r>
       <r>   -0.1542    1.0000 </r>
       <r>    0.7107    1.0000 </r>
       <r>    0.7132    1.0000 </r>
       <r>    0.7155    1.0000 </r>
       <r>    1.0445    1.0000 </r>
       <r>    1.0477    1.0000 </r>
       <r>    1.0492    1.0000 </r>
       <r>    1.6530    1.0000 </r>
       <r>    1.6547    1.0000 </r>
       <r>    1.6563    1.0000 </r>
       <r>    1.6578    1.0000 </r>
       <r>    1.6596    1.0000 </r>
       <r>    1.6609    1.0000 </r>
       <r>    1.7148    1.0000 </r>
       <r>    1.7155    1.0000 </r>
       <r>    1.7193    1.0000 </r>
       <r>    2.2653    1.0000 </r>
       <r>    2.2673    1.0000 </r>
       <r>    2.2677    1.0000 </r>
       <r>    2.3671    1.0000 </r>
       <r>    2.3686    1.0000 </r>
       <r>    2.3708    1.0000 </r>
       <r>    2.3717    1.0000 </r>
       <r>    2.3745    1.0000 </r>
       <r>    2.3763    1.0000 </r>
       <r>    2.4224    1.0000 </r>
       <r>    2.4262    1.0000 </r>
       <r>    2.4295    1.0000 </r>
       <r>    2.7291    1.0000 </r>
       <r>    2.7328    1.0000 </r>
       <r>    2.7345    1.0000 </r>
       <r>    2.7354    1.0000 </r>
       <r>    2.7370    1.0000 </r>
       <r>    2.7402    1.0000 </r>
       <r>    2.9985    1.0000 </r>
       <r>    2.9997    1.0000 </r>
       <r>    3.0007    1.0000 </r>
       <r>    3.0118    1.0000 </r>
       <r>    3.0147    1.0000 </r>
       <r>    3.0164    1.0000 </r>
       <r>    3.3578    1.0000 </r>
       <r>    3.3619    1.0000 </r>
       <r>    3.3634    1.0000 </r>
       <r>    3.3806    1.0000 </r>
       <r>    3.3835    1.0000 </r>
       <r>    3.3845    1.0000 </r>
       <r>    3.4645    1.0000 </r>
       <r>    3.4679    1.0000 </r>
       <r>    3.4694    1.0000 </r>
       <r>    3.7328    1.0000 </r>
       <r>    3.7385    1.0000 </r>
       <r>    3.7405    1.0000 </r>
       <r>    3.7415    1.0000 </r>
       <r>    3.7424    1.0000 </r>
       <r>    3.7436    1.0000 </r>
       <r>    3.7783    1.0000 </r>
       <r>    3.7825    1.0000 </r>
       <r>    3.7838    1.0000 </r>
       <r>    4.0386    1.0000 </r>
       <r>    4.0981    1.0000 </r>
       <r>    4.0985    1.0000 </r>
       <r>    4.1006    1.0000 </r>
       <r>    4.3386    1.0000 </r>
       <r>    4.3427    1.0000 </r>
       <r>    4.3447    1.0000 </r>
       <r>    4.4003    1.0000 </r>
       <r>    4.4045    1.0000 </r>
       <r>    4.4056    1.0000 </r>
       <r>    4.5621    1.0000 </r>
       <r>    4.5650    1.0000 </r>
       <r>    4.8669    1.0000 </r>
       <r>    4.8725    1.0000 </r>
       <r>    4.8747    1.0000 </r>
       <r>    5.3492    1.0000 </r>
       <r>    5.3525    1.0000 </r>
       <r>    6.5624    0.0000 </r>
       <r>    6.5648    0.0000 </r>
       <r>    6.5653    0.0000 </r>
       <r>    7.0004    0.0000 </r>
       <r>    7.0051    0.0000 </r>
       <r>    7.0090    0.0000 </r>
       <r>    7.2344    0.0000 </r>
       <r>    7.4879    0.0000 </r>
       <r>    7.4916    0.0000 </r>
       <r>    7.4948    0.0000 </r>
       <r>    7.6175    0.0000 </r>
       <r>    7.6180    0.0000 </r>
       <r>    7.6212    0.0000 </r>
       <r>    7.7765    0.0000 </r>
       <r>    7.7792    0.0000 </r>
       <r>    7.7838    0.0000 </r>
       <r>    7.8006    0.0000 </r>
       <r>    7.8010    0.0000 </r>
       <r>    7.8036    0.0000 </r>
       <r>    8.0248    0.0000 </r>
       <r>    8.0272    0.0000 </r>
       <r>    8.0283    0.0000 </r>
       <r>    8.0305    0.0000 </r>
       <r>    8.0320    0.0000 </r>
       <r>    8.0353    0.0000 </r>
       <r>    8.0825    0.0000 </r>
       <r>    8.2920    0.0000 </r>
       <r>    8.2952    0.0000 </r>
       <r>    8.2979    0.0000 </r>
       <r>    8.4946    0.0000 </r>
       <r>    8.5005    0.0000 </r>
       <r>    8.5015    0.0000 </r>
       <r>    8.5045    0.0000 </r>
       <r>    8.5094    0.0000 </r>
       <r>    8.5224    0.0000 </r>
       <r>    8.5409    0.0000 </r>
      </set>
      <set comment="kpoint 3">
       <r>   -5.9932    1.0000 </r>
       <r>   -5.4692    1.0000 </r>
       <r>   -5.4650    1.0000 </r>
       <r>   -5.4599    1.0000 </r>
       <r>   -4.9699    1.0000 </r>
       <r>   -4.9658    1.0000 </r>
       <r>   -4.9609    1.0000 </r>
       <r>   -4.5327    1.0000 </r>
       <r>   -4.4374    1.0000 </r>
       <r>   -4.4328    1.0000 </r>
       <r>   -4.4277    1.0000 </r>
       <r>   -4.0236    1.0000 </r>
       <r>   -4.0189    1.0000 </r>
       <r>   -4.0178    1.0000 </r>
       <r>   -4.0163    1.0000 </r>
       <r>   -4.0119    1.0000 </r>
       <r>   -4.0089    1.0000 </r>
       <r>   -3.8257    1.0000 </r>
       <r>   -3.8245    1.0000 </r>
       <r>   -3.8216    1.0000 </r>
       <r>   -3.3346    1.0000 </r>
       <r>   -3.3290    1.0000 </r>
       <r>   -3.3241    1.0000 </r>
       <r>   -2.9606    1.0000 </r>
       <r>   -2.9597    1.0000 </r>
       <r>   -2.9569    1.0000 </r>
       <r>   -2.7978    1.0000 </r>
       <r>   -2.7939    1.0000 </r>
       <r>   -2.7921    1.0000 </r>
       <r>   -2.7909    1.0000 </r>
       <r>   -2.7870    1.0000 </r>
       <r>   -2.7824    1.0000 </r>
       <r>   -1.2566    1.0000 </r>
       <r>   -1.2526    1.0000 </r>
       <r>   -1.2500    1.0000 </r>
       <r>   -1.2487    1.0000 </r>
       <r>   -1.2466    1.0000 </r>
       <r>   -1.2408    1.0000 </r>
       <r>   -1.1531    1.0000 </r>
       <r>   -1.1512    1.0000 </r>
       <r>   -1.1491    1.0000 </r>
       <r>   -1.0358    1.0000 </r>
       <r>   -1.0332    1.0000 </r>
       <r>   -1.0318    1.0000 </r>
       <r>   -0.9473    1.0000 </r>
       <r>   -0.9468    1.0000 </r>
       <r>   -0.9399    1.0000 </r>
       <r>   -0.2428    1.0000 </r>
       <r>   -0.1659    1.0000 </r>
       <r>   -0.1648    1.0000 </r>
       <r>   -0.1618    1.0000 </r>
       <r>   -0.1602    1.0000 </r>
       <r>   -0.1596    1.0000 </r>
       <r>   -0.1525    1.0000 </r>
       <r>    0.7131    1.0000 </r>
       <r>    0.7153    1.0000 </r>
       <r>    0.7179    1.0000 </r>
       <r>    1.0451    1.0000 </r>
       <r>    1.0465    1.0000 </r>
       <r>    1.0498    1.0000 </r>
       <r>    1.6529    1.0000 </r>
       <r>    1.6544    1.0000 </r>
       <r>    1.6563    1.0000 </r>
       <r>    1.6579    1.0000 </r>
       <r>    1.6593    1.0000 </r>
       <r>    1.6607    1.0000 </r>
       <r>    1.7127    1.0000 </r>
       <r>    1.7164    1.0000 </r>
       <r>    1.7174    1.0000 </r>
       <r>    2.2678    1.0000 </r>
       <r>    2.2682    1.0000 </r>
       <r>    2.2699    1.0000 </r>
       <r>    2.3653    1.0000 </r>
       <r>    2.3671    1.0000 </r>
       <r>    2.3702    1.0000 </r>
       <r>    2.3711    1.0000 </r>
       <r>    2.3732    1.0000 </r>
       <r>    2.3745    1.0000 </r>
       <r>    2.4207    1.0000 </r>
       <r>    2.4234    1.0000 </r>
       <r>    2.4276    1.0000 </r>
       <r>    2.7297    1.0000 </r>
       <r>    2.7328    1.0000 </r>
       <r>    2.7344    1.0000 </r>
       <r>    2.7353    1.0000 </r>
       <r>    2.7371    1.0000 </r>
       <r>    2.7407    1.0000 </r>
       <r>    2.9975    1.0000 </r>
       <r>    2.9987    1.0000 </r>
       <r>    2.9994    1.0000 </r>
       <r>    3.0102    1.0000 </r>
       <r>    3.0136    1.0000 </r>
       <r>    3.0155    1.0000 </r>
       <r>    3.3605    1.0000 </r>
       <r>    3.3620    1.0000 </r>
       <r>    3.3662    1.0000 </r>
       <r>    3.3840    1.0000 </r>
       <r>    3.3849    1.0000 </r>
       <r>    3.3887    1.0000 </r>
       <r>    3.4638    1.0000 </r>
       <r>    3.4657    1.0000 </r>
       <r>    3.4690    1.0000 </r>
       <r>    3.7387    1.0000 </r>
       <r>    3.7401    1.0000 </r>
       <r>    3.7411    1.0000 </r>
       <r>    3.7418    1.0000 </r>
       <r>    3.7435    1.0000 </r>
       <r>    3.7496    1.0000 </r>
       <r>    3.7774    1.0000 </r>
       <r>    3.7799    1.0000 </r>
       <r>    3.7836    1.0000 </r>
       <r>    4.0425    1.0000 </r>
       <r>    4.0954    1.0000 </r>
       <r>    4.0974    1.0000 </r>
       <r>    4.0978    1.0000 </r>
       <r>    4.3375    1.0000 </r>
       <r>    4.3394    1.0000 </r>
       <r>    4.3434    1.0000 </r>
       <r>    4.4057    1.0000 </r>
       <r>    4.4070    1.0000 </r>
       <r>    4.4115    1.0000 </r>
       <r>    4.5609    1.0000 </r>
       <r>    4.5638    1.0000 </r>
       <r>    4.8653    1.0000 </r>
       <r>    4.8677    1.0000 </r>
       <r>    4.8732    1.0000 </r>
       <r>    5.3469    1.0000 </r>
       <r>    5.3502    1.0000 </r>
       <r>    6.5616    0.0000 </r>
       <r>    6.5618    0.0000 </r>
       <r>    6.5644    0.0000 </r>
       <r>    6.9998    0.0000 </r>
       <r>    7.0040    0.0000 </r>
       <r>    7.0084    0.0000 </r>
       <r>    7.2330    0.0000 </r>
       <r>    7.4863    0.0000 </r>
       <r>    7.4899    0.0000 </r>
       <r>    7.4934    0.0000 </r>
       <r>    7.6182    0.0000 </r>
       <r>    7.6207    0.0000 </r>
       <r>    7.6219    0.0000 </r>
       <r>    7.7752    0.0000 </r>
       <r>    7.7801    0.0000 </r>
       <r>    7.7830    0.0000 </r>
       <r>    7.7999    0.0000 </r>
       <r>    7.8010    0.0000 </r>
       <r>    7.8021    0.0000 </r>
       <r>    8.0256    0.0000 </r>
       <r>    8.0292    0.0000 </r>
       <r>    8.0308    0.0000 </r>
       <r>    8.0326    0.0000 </r>
       <r>    8.0340    0.0000 </r>
       <r>    8.0361    0.0000 </r>
       <r>    8.0803    0.0000 </r>
       <r>    8.2919    0.0000 </r>
       <r>    8.2947    0.0000 </r>
       <r>    8.2979    0.0000 </r>
       <r>    8.4955    0.0000 </r>
       <r>    8.4997    0.0000 </r>
       <r>    8.5014    0.0000 </r>
       <r>    8.5044    0.0000 </r>
       <r>    8.5090    0.0000 </r>
       <r>    8.5181    0.0000 </r>
       <r>    8.5410    0.0000 </r>
      </set>
      <set comment="kpoint 4">
       <r>   -5.9931    1.0000 </r>
       <r>   -5.4679    1.0000 </r>
       <r>   -5.4650    1.0000 </r>
       <r>   -5.4614    1.0000 </r>
       <r>   -4.9684    1.0000 </r>
       <r>   -4.9658    1.0000 </r>
       <r>   -4.9623    1.0000 </r>
       <r>   -4.5321    1.0000 </r>
       <r>   -4.4354    1.0000 </r>
       <r>   -4.4328    1.0000 </r>
       <r>   -4.4288    1.0000 </r>
       <r>   -4.0223    1.0000 </r>
       <r>   -4.0191    1.0000 </r>
       <r>   -4.0184    1.0000 </r>
       <r>   -4.0163    1.0000 </r>
       <r>   -4.0136    1.0000 </r>
       <r>   -4.0096    1.0000 </r>
       <r>   -3.8270    1.0000 </r>
       <r>   -3.8239    1.0000 </r>
       <r>   -3.8225    1.0000 </r>
       <r>   -3.3317    1.0000 </r>
       <r>   -3.3289    1.0000 </r>
       <r>   -3.3233    1.0000 </r>
       <r>   -2.9620    1.0000 </r>
       <r>   -2.9586    1.0000 </r>
       <r>   -2.9572    1.0000 </r>
       <r>   -2.7967    1.0000 </r>
       <r>   -2.7935    1.0000 </r>
       <r>   -2.7925    1.0000 </r>
       <r>   -2.7909    1.0000 </r>
       <r>   -2.7879    1.0000 </r>
       <r>   -2.7838    1.0000 </r>
       <r>   -1.2536    1.0000 </r>
       <r>   -1.2522    1.0000 </r>
       <r>   -1.2510    1.0000 </r>
       <r>   -1.2487    1.0000 </r>
       <r>   -1.2453    1.0000 </r>
       <r>   -1.2418    1.0000 </r>
       <r>   -1.1539    1.0000 </r>
       <r>   -1.1501    1.0000 </r>
       <r>   -1.1485    1.0000 </r>
       <r>   -1.0352    1.0000 </r>
       <r>   -1.0324    1.0000 </r>
       <r>   -1.0298    1.0000 </r>
       <r>   -0.9558    1.0000 </r>
       <r>   -0.9471    1.0000 </r>
       <r>   -0.9396    1.0000 </r>
       <r>   -0.2453    1.0000 </r>
       <r>   -0.1657    1.0000 </r>
       <r>   -0.1644    1.0000 </r>
       <r>   -0.1608    1.0000 </r>
       <r>   -0.1600    1.0000 </r>
       <r>   -0.1551    1.0000 </r>
       <r>   -0.1529    1.0000 </r>
       <r>    0.7090    1.0000 </r>
       <r>    0.7140    1.0000 </r>
       <r>    0.7184    1.0000 </r>
       <r>    1.0442    1.0000 </r>
       <r>    1.0470    1.0000 </r>
       <r>    1.0501    1.0000 </r>
       <r>    1.6529    1.0000 </r>
       <r>    1.6545    1.0000 </r>
       <r>    1.6566    1.0000 </r>
       <r>    1.6577    1.0000 </r>
       <r>    1.6586    1.0000 </r>
       <r>    1.6615    1.0000 </r>
       <r>    1.7133    1.0000 </r>
       <r>    1.7153    1.0000 </r>
       <r>    1.7203    1.0000 </r>
       <r>    2.2658    1.0000 </r>
       <r>    2.2677    1.0000 </r>
       <r>    2.2684    1.0000 </r>
       <r>    2.3657    1.0000 </r>
       <r>    2.3685    1.0000 </r>
       <r>    2.3707    1.0000 </r>
       <r>    2.3722    1.0000 </r>
       <r>    2.3743    1.0000 </r>
       <r>    2.3755    1.0000 </r>
       <r>    2.4230    1.0000 </r>
       <r>    2.4244    1.0000 </r>
       <r>    2.4287    1.0000 </r>
       <r>    2.7299    1.0000 </r>
       <r>    2.7331    1.0000 </r>
       <r>    2.7343    1.0000 </r>
       <r>    2.7349    1.0000 </r>
       <r>    2.7371    1.0000 </r>
       <r>    2.7400    1.0000 </r>
       <r>    2.9977    1.0000 </r>
       <r>    2.9995    1.0000 </r>
       <r>    3.0004    1.0000 </r>
       <r>    3.0115    1.0000 </r>
       <r>    3.0143    1.0000 </r>
       <r>    3.0164    1.0000 </r>
       <r>    3.3583    1.0000 </r>
       <r>    3.3614    1.0000 </r>
       <r>    3.3636    1.0000 </r>
       <r>    3.3825    1.0000 </r>
       <r>    3.3847    1.0000 </r>
       <r>    3.3854    1.0000 </r>
       <r>    3.4642    1.0000 </r>
       <r>    3.4671    1.0000 </r>
       <r>    3.4693    1.0000 </r>
       <r>    3.7325    1.0000 </r>
       <r>    3.7395    1.0000 </r>
       <r>    3.7406    1.0000 </r>
       <r>    3.7414    1.0000 </r>
       <r>    3.7426    1.0000 </r>
       <r>    3.7477    1.0000 </r>
       <r>    3.7779    1.0000 </r>
       <r>    3.7812    1.0000 </r>
       <r>    3.7839    1.0000 </r>
       <r>    4.0398    1.0000 </r>
       <r>    4.0971    1.0000 </r>
       <r>    4.0979    1.0000 </r>
       <r>    4.1002    1.0000 </r>
       <r>    4.3380    1.0000 </r>
       <r>    4.3418    1.0000 </r>
       <r>    4.3445    1.0000 </r>
       <r>    4.3985    1.0000 </r>
       <r>    4.4053    1.0000 </r>
       <r>    4.4109    1.0000 </r>
       <r>    4.5610    1.0000 </r>
       <r>    4.5653    1.0000 </r>
       <r>    4.8659    1.0000 </r>
       <r>    4.8712    1.0000 </r>
       <r>    4.8747    1.0000 </r>
       <r>    5.3477    1.0000 </r>
       <r>    5.3525    1.0000 </r>
       <r>    6.5617    0.0000 </r>
       <r>    6.5641    0.0000 </r>
       <r>    6.5655    0.0000 </r>
       <r>    7.0009    0.0000 </r>
       <r>    7.0051    0.0000 </r>
       <r>    7.0079    0.0000 </r>
       <r>    7.2341    0.0000 </r>
       <r>    7.4880    0.0000 </r>
       <r>    7.4915    0.0000 </r>
       <r>    7.4937    0.0000 </r>
       <r>    7.6172    0.0000 </r>
       <r>    7.6187    0.0000 </r>
       <r>    7.6218    0.0000 </r>
       <r>    7.7764    0.0000 </r>
       <r>    7.7810    0.0000 </r>
       <r>    7.7819    0.0000 </r>
       <r>    7.7997    0.0000 </r>
       <r>    7.8014    0.0000 </r>
       <r>    7.8032    0.0000 </r>
       <r>    8.0247    0.0000 </r>
       <r>    8.0272    0.0000 </r>
       <r>    8.0290    0.0000 </r>
       <r>    8.0306    0.0000 </r>
       <r>    8.0340    0.0000 </r>
       <r>    8.0353    0.0000 </r>
       <r>    8.0820    0.0000 </r>
       <r>    8.2921    0.0000 </r>
       <r>    8.2956    0.0000 </r>
       <r>    8.2974    0.0000 </r>
       <r>    8.4957    0.0000 </r>
       <r>    8.4973    0.0000 </r>
       <r>    8.5026    0.0000 </r>
       <r>    8.5057    0.0000 </r>
       <r>    8.5074    0.0000 </r>
       <r>    8.5172    0.0000 </r>
       <r>    8.5412    0.0000 </r>
      </set>
     </set>
    </set>
   </array>
  </eigenvalues>
  <separator name="orbital magnetization" >
   <v name="MAGDIPOLOUT">      0.00000000      0.00000000      0.00000000</v>
  </separator>
  <dos>
   <i name="efermi">      5.60120221 </i>
   <total>
    <array>
     <dimension dim="1">gridpoints</dimension>
     <dimension dim="2">spin</dimension>
     <field>energy</field>
     <field>total</field>
     <field>integrated</field>
     <set>
      <set comment="spin 1">
       <r>    -6.7203     0.0000     0.0000 </r>
       <r>    -6.6670     0.0000     0.0000 </r>
       <r>    -6.6137     0.0000     0.0000 </r>
       <r>    -6.5604     0.0000     0.0000 </r>
       <r>    -6.5070     0.0000     0.0000 </r>
       <r>    -6.4537     0.0000     0.0000 </r>
       <r>    -6.4004     0.0000     0.0000 </r>
       <r>    -6.3471     0.0000     0.0000 </r>
       <r>    -6.2937     0.0000     0.0000 </r>
       <r>    -6.2404     0.0000     0.0000 </r>
       <r>    -6.1871     0.0000     0.0000 </r>
       <r>    -6.1338     0.0013     0.0001 </r>
       <r>    -6.0804     0.2528     0.0136 </r>
       <r>    -6.0271     6.0604     0.3367 </r>
       <r>    -5.9738    20.2402     1.4160 </r>
       <r>    -5.9205    10.2045     1.9602 </r>
       <r>    -5.8671     0.7394     1.9996 </r>
       <r>    -5.8138     0.0068     2.0000 </r>
       <r>    -5.7605     0.0000     2.0000 </r>
       <r>    -5.7072     0.0000     2.0000 </r>
       <r>    -5.6538     0.0000     2.0000 </r>
       <r>    -5.6005     0.0074     2.0004 </r>
       <r>    -5.5472     1.1318     2.0607 </r>
       <r>    -5.4939    22.0550     3.2368 </r>
       <r>    -5.4405    61.4578     6.5141 </r>
       <r>    -5.3872    26.2340     7.9131 </r>
       <r>    -5.3339     1.6175     7.9993 </r>
       <r>    -5.2806     0.0128     8.0000 </r>
       <r>    -5.2272     0.0000     8.0000 </r>
       <r>    -5.1739     0.0000     8.0000 </r>
       <r>    -5.1206     0.0007     8.0000 </r>
       <r>    -5.0673     0.2331     8.0125 </r>
       <r>    -5.0139     9.4794     8.5180 </r>
       <r>    -4.9606    52.7467    11.3307 </r>
       <r>    -4.9073    44.3854    13.6976 </r>
       <r>    -4.8539     5.5771    13.9950 </r>
       <r>    -4.8006     0.0937    14.0000 </r>
       <r>    -4.7473     0.0002    14.0000 </r>
       <r>    -4.6940     0.0001    14.0000 </r>
       <r>    -4.6406     0.0405    14.0022 </r>
       <r>    -4.5873     2.1947    14.1192 </r>
       <r>    -4.5340    16.0067    14.9728 </r>
       <r>    -4.4807    26.3612    16.3785 </r>
       <r>    -4.4273    55.5059    19.3384 </r>
       <r>    -4.3740    44.2807    21.6997 </r>
       <r>    -4.3207     5.5387    21.9950 </r>
       <r>    -4.2674     0.0930    22.0000 </r>
       <r>    -4.2140     0.0002    22.0000 </r>
       <r>    -4.1607     0.0058    22.0003 </r>
       <r>    -4.1074     1.2010    22.0644 </r>
       <r>    -4.0541    31.5746    23.7481 </r>
       <r>    -4.0007   118.0904    30.0453 </r>
       <r>    -3.9474    68.2628    33.6855 </r>
       <r>    -3.8941     8.5688    34.1424 </r>
       <r>    -3.8408    33.4351    35.9254 </r>
       <r>    -3.7874    59.6565    39.1066 </r>
       <r>    -3.7341    16.1436    39.9675 </r>
       <r>    -3.6808     0.6075    39.9998 </r>
       <r>    -3.6275     0.0028    40.0000 </r>
       <r>    -3.5741     0.0000    40.0000 </r>
       <r>    -3.5208     0.0000    40.0000 </r>
       <r>    -3.4675     0.0052    40.0003 </r>
       <r>    -3.4142     0.8883    40.0476 </r>
       <r>    -3.3608    19.4343    41.0840 </r>
       <r>    -3.3075    60.7987    44.3261 </r>
       <r>    -3.2542    29.3027    45.8887 </r>
       <r>    -3.2009     2.0680    45.9990 </r>
       <r>    -3.1475     0.0190    46.0000 </r>
       <r>    -3.0942     0.0077    46.0004 </r>
       <r>    -3.0409     1.1773    46.0632 </r>
       <r>    -2.9876    22.6313    47.2700 </r>
       <r>    -2.9342    61.6762    50.5589 </r>
       <r>    -2.8809    26.7993    51.9880 </r>
       <r>    -2.8276    34.2517    53.8145 </r>
       <r>    -2.7743   118.7740    60.1482 </r>
       <r>    -2.7209    66.6184    63.7007 </r>
       <r>    -2.6676     5.5516    63.9967 </r>
       <r>    -2.6143     0.0614    64.0000 </r>
       <r>    -2.5609     0.0001    64.0000 </r>
       <r>    -2.5076     0.0000    64.0000 </r>
       <r>    -2.4543     0.0000    64.0000 </r>
       <r>    -2.4010     0.0000    64.0000 </r>
       <r>    -2.3476     0.0000    64.0000 </r>
       <r>    -2.2943     0.0000    64.0000 </r>
       <r>    -2.2410     0.0000    64.0000 </r>
       <r>    -2.1877     0.0000    64.0000 </r>
       <r>    -2.1343     0.0000    64.0000 </r>
       <r>    -2.0810     0.0000    64.0000 </r>
       <r>    -2.0277     0.0000    64.0000 </r>
       <r>    -1.9744     0.0000    64.0000 </r>
       <r>    -1.9210     0.0000    64.0000 </r>
       <r>    -1.8677     0.0000    64.0000 </r>
       <r>    -1.8144     0.0000    64.0000 </r>
       <r>    -1.7611     0.0000    64.0000 </r>
       <r>    -1.7077     0.0000    64.0000 </r>
       <r>    -1.6544     0.0000    64.0000 </r>
       <r>    -1.6011     0.0000    64.0000 </r>
       <r>    -1.5478     0.0000    64.0000 </r>
       <r>    -1.4944     0.0000    64.0000 </r>
       <r>    -1.4411     0.0000    64.0000 </r>
       <r>    -1.3878     0.0111    64.0006 </r>
       <r>    -1.3345     1.8391    64.0987 </r>
       <r>    -1.2811    39.3770    66.1985 </r>
       <r>    -1.2278   123.1736    72.7668 </r>
       <r>    -1.1745    84.8960    77.2939 </r>
       <r>    -1.1212    66.3410    80.8316 </r>
       <r>    -1.0678    39.0192    82.9123 </r>
       <r>    -1.0145    64.5848    86.3563 </r>
       <r>    -0.9612    66.9458    89.9262 </r>
       <r>    -0.9079    60.7339    93.1649 </r>
       <r>    -0.8545    15.0966    93.9700 </r>
       <r>    -0.8012     0.5608    93.9999 </r>
       <r>    -0.7479     0.0027    94.0000 </r>
       <r>    -0.6946     0.0000    94.0000 </r>
       <r>    -0.6412     0.0000    94.0000 </r>
       <r>    -0.5879     0.0000    94.0000 </r>
       <r>    -0.5346     0.0000    94.0000 </r>
       <r>    -0.4812     0.0000    94.0000 </r>
       <r>    -0.4279     0.0000    94.0000 </r>
       <r>    -0.3746     0.0045    94.0002 </r>
       <r>    -0.3213     0.5633    94.0303 </r>
       <r>    -0.2679     9.2639    94.5243 </r>
       <r>    -0.2146    34.4290    96.3602 </r>
       <r>    -0.1613   102.4284   101.8223 </r>
       <r>    -0.1080    99.7002   107.1389 </r>
       <r>    -0.0546    15.8018   107.9815 </r>
       <r>    -0.0013     0.3461   107.9999 </r>
       <r>     0.0520     0.0009   108.0000 </r>
       <r>     0.1053     0.0000   108.0000 </r>
       <r>     0.1587     0.0000   108.0000 </r>
       <r>     0.2120     0.0000   108.0000 </r>
       <r>     0.2653     0.0000   108.0000 </r>
       <r>     0.3186     0.0000   108.0000 </r>
       <r>     0.3720     0.0000   108.0000 </r>
       <r>     0.4253     0.0000   108.0000 </r>
       <r>     0.4786     0.0000   108.0000 </r>
       <r>     0.5319     0.0000   108.0000 </r>
       <r>     0.5853     0.0156   108.0008 </r>
       <r>     0.6386     1.8393   108.0989 </r>
       <r>     0.6919    27.8852   109.5859 </r>
       <r>     0.7452    61.2247   112.8508 </r>
       <r>     0.7986    20.5631   113.9473 </r>
       <r>     0.8519     0.9825   113.9997 </r>
       <r>     0.9052     0.0094   114.0002 </r>
       <r>     0.9585     0.6951   114.0373 </r>
       <r>     1.0119    17.2974   114.9597 </r>
       <r>     1.0652    60.2245   118.1712 </r>
       <r>     1.1185    31.8314   119.8686 </r>
       <r>     1.1718     2.4402   119.9987 </r>
       <r>     1.2252     0.0241   120.0000 </r>
       <r>     1.2785     0.0000   120.0000 </r>
       <r>     1.3318     0.0000   120.0000 </r>
       <r>     1.3851     0.0000   120.0000 </r>
       <r>     1.4385     0.0000   120.0000 </r>
       <r>     1.4918     0.0004   120.0000 </r>
       <r>     1.5451     0.1811   120.0097 </r>
       <r>     1.5984    11.0011   120.5963 </r>
       <r>     1.6518    92.1686   125.5113 </r>
       <r>     1.7051   144.6611   133.2254 </r>
       <r>     1.7584    76.0303   137.2798 </r>
       <r>     1.8118    13.1155   137.9792 </r>
       <r>     1.8651     0.3893   137.9999 </r>
       <r>     1.9184     0.0015   138.0000 </r>
       <r>     1.9717     0.0000   138.0000 </r>
       <r>     2.0251     0.0000   138.0000 </r>
       <r>     2.0784     0.0000   138.0000 </r>
       <r>     2.1317     0.0068   138.0004 </r>
       <r>     2.1850     1.0870   138.0583 </r>
       <r>     2.2384    21.8115   139.2214 </r>
       <r>     2.2917    64.5022   142.6611 </r>
       <r>     2.3450    77.2982   146.7830 </r>
       <r>     2.3983   148.8558   154.7209 </r>
       <r>     2.4517   108.5363   160.5086 </r>
       <r>     2.5050    26.5993   161.9270 </r>
       <r>     2.5583     1.3587   161.9995 </r>
       <r>     2.6116     0.0675   162.0031 </r>
       <r>     2.6650     5.4295   162.2926 </r>
       <r>     2.7183    66.4354   165.8353 </r>
       <r>     2.7716   119.1738   172.1903 </r>
       <r>     2.8249    32.6700   173.9325 </r>
       <r>     2.8783     1.3032   174.0020 </r>
       <r>     2.9316     4.2910   174.2308 </r>
       <r>     2.9849    57.8686   177.3167 </r>
       <r>     3.0382   120.2595   183.7296 </r>
       <r>     3.0916    40.5001   185.8893 </r>
       <r>     3.1449     2.0620   185.9992 </r>
       <r>     3.1982     0.0143   186.0000 </r>
       <r>     3.2515     0.1148   186.0061 </r>
       <r>     3.3049     7.3626   186.3988 </r>
       <r>     3.3582    70.0861   190.1361 </r>
       <r>     3.4115   120.0393   196.5373 </r>
       <r>     3.4648    79.8446   200.7951 </r>
       <r>     3.5182    51.8786   203.5615 </r>
       <r>     3.5715     8.0495   203.9908 </r>
       <r>     3.6248     0.2949   204.0065 </r>
       <r>     3.6781     8.7021   204.4705 </r>
       <r>     3.7315    88.6529   209.1980 </r>
       <r>     3.7848   163.9739   217.9420 </r>
       <r>     3.8381    69.4068   221.6432 </r>
       <r>     3.8915     6.5880   221.9945 </r>
       <r>     3.9448     0.2316   222.0068 </r>
       <r>     3.9981     4.4573   222.2445 </r>
       <r>     4.0514    29.2961   223.8067 </r>
       <r>     4.1048    67.1392   227.3870 </r>
       <r>     4.1581    43.9585   229.7311 </r>
       <r>     4.2114     4.9812   229.9967 </r>
       <r>     4.2647     1.8289   230.0943 </r>
       <r>     4.3181    28.0671   231.5909 </r>
       <r>     4.3714    79.3803   235.8240 </r>
       <r>     4.4247    81.2594   240.1572 </r>
       <r>     4.4780    32.7709   241.9047 </r>
       <r>     4.5314    15.7505   242.7446 </r>
       <r>     4.5847    40.8530   244.9231 </r>
       <r>     4.6380    18.9235   245.9322 </r>
       <r>     4.6913     1.2605   245.9994 </r>
       <r>     4.7447     0.0342   246.0013 </r>
       <r>     4.7980     2.3739   246.1278 </r>
       <r>     4.8513    31.2591   247.7948 </r>
       <r>     4.9046    60.2795   251.0092 </r>
       <r>     4.9580    17.8289   251.9599 </r>
       <r>     5.0113     0.7474   251.9998 </r>
       <r>     5.0646     0.0040   252.0000 </r>
       <r>     5.1179     0.0000   252.0000 </r>
       <r>     5.1713     0.0000   252.0000 </r>
       <r>     5.2246     0.0155   252.0008 </r>
       <r>     5.2779     1.5917   252.0857 </r>
       <r>     5.3312    21.0149   253.2063 </r>
       <r>     5.3846    40.2216   255.3512 </r>
       <r>     5.4379    11.6890   255.9745 </r>
       <r>     5.4912     0.4757   255.9999 </r>
       <r>     5.5445     0.0024   256.0000 </r>
       <r>     5.5979     0.0000   256.0000 </r>
       <r>     5.6512     0.0000   256.0000 </r>
       <r>     5.7045     0.0000   256.0000 </r>
       <r>     5.7578     0.0000   256.0000 </r>
       <r>     5.8112     0.0000   256.0000 </r>
       <r>     5.8645     0.0000   256.0000 </r>
       <r>     5.9178     0.0000   256.0000 </r>
       <r>     5.9711     0.0000   256.0000 </r>
       <r>     6.0245     0.0000   256.0000 </r>
       <r>     6.0778     0.0000   256.0000 </r>
       <r>     6.1311     0.0000   256.0000 </r>
       <r>     6.1845     0.0000   256.0000 </r>
       <r>     6.2378     0.0000   256.0000 </r>
       <r>     6.2911     0.0000   256.0000 </r>
       <r>     6.3444     0.0000   256.0000 </r>
       <r>     6.3978     0.0002   256.0000 </r>
       <r>     6.4511     0.0844   256.0045 </r>
       <r>     6.5044     5.2879   256.2865 </r>
       <r>     6.5577    43.7238   258.6181 </r>
       <r>     6.6111    53.4003   261.4657 </r>
       <r>     6.6644     9.7765   261.9870 </r>
       <r>     6.7177     0.2426   262.0000 </r>
       <r>     6.7710     0.0007   262.0000 </r>
       <r>     6.8244     0.0000   262.0000 </r>
       <r>     6.8777     0.0200   262.0011 </r>
       <r>     6.9310     2.1478   262.1156 </r>
       <r>     6.9843    29.9371   263.7120 </r>
       <r>     7.0377    60.7330   266.9506 </r>
       <r>     7.0910    18.8466   267.9556 </r>
       <r>     7.1443     1.0416   268.0112 </r>
       <r>     7.1976     5.5514   268.3072 </r>
       <r>     7.2510    20.0005   269.3738 </r>
       <r>     7.3043    10.8805   269.9540 </r>
       <r>     7.3576     0.8644   270.0001 </r>
       <r>     7.4109     1.3769   270.0735 </r>
       <r>     7.4643    24.2806   271.3683 </r>
       <r>     7.5176    61.8721   274.6676 </r>
       <r>     7.5709    33.1777   276.4369 </r>
       <r>     7.6242    53.9575   279.3142 </r>
       <r>     7.6776    44.9136   281.7092 </r>
       <r>     7.7309    17.4879   282.6418 </r>
       <r>     7.7842    85.3402   287.1926 </r>
       <r>     7.8375   104.6601   292.7736 </r>
       <r>     7.8909    22.2696   293.9612 </r>
       <r>     7.9442     2.4296   294.0908 </r>
       <r>     7.9975    38.3605   296.1363 </r>
       <r>     8.0508   128.3833   302.9825 </r>
       <r>     8.1042    80.0243   307.2498 </r>
       <r>     8.1575    13.4423   307.9666 </r>
       <r>     8.2108     1.6083   308.0524 </r>
       <r>     8.2641    20.6406   309.1531 </r>
       <r>     8.3175    61.3408   312.4241 </r>
       <r>     8.3708    27.7563   313.9042 </r>
       <r>     8.4241     4.6534   314.1524 </r>
       <r>     8.4775    48.7963   316.7545 </r>
       <r>     8.5308   133.4549   323.8710 </r>
       <r>     8.5841    69.4166   327.5727 </r>
       <r>     8.6374     7.8291   327.9902 </r>
       <r>     8.6908     0.1832   328.0000 </r>
       <r>     8.7441     0.0007   328.0000 </r>
       <r>     8.7974     0.0000   328.0000 </r>
       <r>     8.8507     0.0000   328.0000 </r>
       <r>     8.9041     0.0000   328.0000 </r>
       <r>     8.9574     0.0000   328.0000 </r>
       <r>     9.0107     0.0000   328.0000 </r>
       <r>     9.0640     0.0000   328.0000 </r>
       <r>     9.1174     0.0000   328.0000 </r>
       <r>     9.1707     0.0000   328.0000 </r>
       <r>     9.2240     0.0000   328.0000 </r>
       <r>     9.2773     0.0000   328.0000 </r>
      </set>
     </set>
    </array>
   </total>
  </dos>
 </calculation>
 <structure name="finalpos" >
  <crystal>
   <varray name="basis" >
    <v>      10.93252578       0.00000000       0.00000000 </v>
    <v>       0.00000000      10.93252578       0.00000000 </v>
    <v>       0.00000000       0.00000000      10.93252578 </v>
   </varray>
   <i name="volume">   1306.65679237 </i>
   <varray name="rec_basis" >
    <v>       0.09147017       0.00000000       0.00000000 </v>
    <v>       0.00000000       0.09147017       0.00000000 </v>
    <v>       0.00000000       0.00000000       0.09147017 </v>
   </varray>
  </crystal>
  <varray name="positions" >
   <v>       0.44024411       0.43750000       0.43750000 </v>
   <v>       0.93750000       0.43750000       0.43750000 </v>
   <v>       0.43750000       0.93750000       0.43750000 </v>
   <v>       0.93750000       0.93750000       0.43750000 </v>
   <v>       0.43750000       0.43750000       0.93750000 </v>
   <v>       0.93750000       0.43750000       0.93750000 </v>
   <v>       0.43555962       0.93555962       0.93750000 </v>
   <v>       0.93750000       0.93750000       0.93750000 </v>
   <v>       0.43750000       0.18750000       0.18750000 </v>
   <v>       0.93750000       0.18750000       0.18750000 </v>
   <v>       0.43750000       0.68750000       0.18750000 </v>
   <v>       0.93750000       0.68750000       0.18750000 </v>
   <v>       0.43750000       0.18750000       0.68750000 </v>
   <v>       0.93750000       0.18750000       0.68750000 </v>
   <v>       0.43750000       0.68750000       0.68750000 </v>
   <v>       0.93750000       0.68750000       0.68750000 </v>
   <v>       0.18750000       0.43750000       0.18750000 </v>
   <v>       0.68750000       0.43750000       0.18750000 </v>
   <v>       0.18750000       0.93750000       0.18750000 </v>
   <v>       0.68750000       0.93750000       0.18750000 </v>
   <v>       0.18750000       0.43750000       0.68750000 </v>
   <v>       0.68750000       0.43750000       0.68750000 </v>
   <v>       0.18750000       0.93750000       0.68750000 </v>
   <v>       0.68750000       0.93750000       0.68750000 </v>
   <v>       0.18750000       0.18750000       0.43750000 </v>
   <v>       0.68750000       0.18750000       0.43750000 </v>
   <v>       0.18750000       0.68750000       0.43750000 </v>
   <v>       0.68750000       0.68750000       0.43750000 </v>
   <v>       0.18750000       0.18750000       0.93750000 </v>
   <v>       0.68750000       0.18750000       0.93750000 </v>
   <v>       0.18750000       0.68750000       0.93750000 </v>
   <v>       0.68750000       0.68750000       0.93750000 </v>
   <v>       0.06250000       0.06250000       0.06250000 </v>
   <v>       0.56250000       0.06250000       0.06250000 </v>
   <v>       0.06250000       0.56250000       0.06250000 </v>
   <v>       0.56250000       0.56250000       0.06250000 </v>
   <v>       0.06250000       0.06250000       0.56250000 </v>
   <v>       0.56250000       0.06250000       0.56250000 </v>
   <v>       0.06250000       0.56250000       0.56250000 </v>
   <v>       0.56250000       0.56250000       0.56250000 </v>
   <v>       0.06250000       0.31250000       0.31250000 </v>
   <v>       0.56250000       0.31250000       0.31250000 </v>
   <v>       0.06250000       0.81250000       0.31250000 </v>
   <v>       0.56250000       0.81250000       0.31250000 </v>
   <v>       0.06250000       0.31250000       0.81250000 </v>
   <v>       0.56250000       0.31250000       0.81250000 </v>
   <v>       0.06250000       0.81250000       0.81250000 </v>
   <v>       0.56250000       0.81250000       0.81250000 </v>
   <v>       0.31250000       0.06250000       0.31250000 </v>
   <v>       0.81250000       0.06250000       0.31250000 </v>
   <v>       0.31250000       0.56250000       0.31250000 </v>
   <v>       0.81250000       0.56250000       0.31250000 </v>
   <v>       0.31250000       0.06250000       0.81250000 </v>
   <v>       0.81250000       0.06250000       0.81250000 </v>
   <v>       0.31250000       0.56250000       0.81250000 </v>
   <v>       0.81250000       0.56250000       0.81250000 </v>
   <v>       0.31250000       0.31250000       0.06250000 </v>
   <v>       0.81250000       0.31250000       0.06250000 </v>
   <v>       0.31250000       0.81250000       0.06250000 </v>
   <v>       0.81250000       0.81250000       0.06250000 </v>
   <v>       0.31250000       0.31250000       0.56250000 </v>
   <v>       0.81250000       0.31250000       0.56250000 </v>
   <v>       0.31250000       0.81250000       0.56250000 </v>
   <v>       0.81250000       0.81250000       0.56250000 </v>
  </varray>
 </structure>
</modeling>
